TITLE = "Solution" 
VARIABLES = "x", "y", "sol" 
ZONE STRANDID=1, SOLUTIONTIME= 0.8000000000000006, I= 201, J =201, DATAPACKING=POINT 
-1.0,-1.0,0.7690253305673471
-0.99,-1.0,0.7859615054261558
-0.98,-1.0,0.799795849294704
-0.97,-1.0,0.8104737643380531
-0.96,-1.0,0.8179531097038022
-0.95,-1.0,0.8222043678327797
-0.94,-1.0,0.823210760951367
-0.9299999999999999,-1.0,0.8209683172857022
-0.92,-1.0,0.8154858867364575
-0.91,-1.0,0.8067851059523276
-0.9,-1.0,0.7949003129400585
-0.89,-1.0,0.7798784115480237
-0.88,-1.0,0.7617786863581648
-0.87,-1.0,0.740672568716827
-0.86,-1.0,0.7166433548278729
-0.85,-1.0,0.6897858770206187
-0.84,-1.0,0.6602061294899559
-0.83,-1.0,0.6280208499856866
-0.8200000000000001,-1.0,0.5933570591019581
-0.81,-1.0,0.5563515589850087
-0.8,-1.0,0.5171503934375956
-0.79,-1.0,0.4759082715508252
-0.78,-1.0,0.43278795713805207
-0.77,-1.0,0.38795962638046455
-0.76,-1.0,0.34160019621944704
-0.75,-1.0,0.2938926261462367
-0.74,-1.0,0.245025196144396
-0.73,-1.0,0.19519076363473736
-0.72,-1.0,0.1445860023551902
-0.71,-1.0,0.09341062617940811
-0.7,-1.0,0.04186660093735187
-0.69,-1.0,-0.009842652651573731
-0.6799999999999999,-1.0,-0.061513061787163696
-0.6699999999999999,-1.0,-0.11294070697052469
-0.6599999999999999,-1.0,-0.16392262678117375
-0.6499999999999999,-1.0,-0.21425761887304218
-0.64,-1.0,-0.263747034028214
-0.63,-1.0,-0.31219556013463456
-0.62,-1.0,-0.3594119929937882
-0.61,-1.0,-0.4052099909163156
-0.6,-1.0,-0.4494088101275325
-0.59,-1.0,-0.49183401808053134
-0.5800000000000001,-1.0,-0.5323181818617557
-0.5700000000000001,-1.0,-0.5707015289722158
-0.56,-1.0,-0.6068325778765501
-0.55,-1.0,-0.6405687358314397
-0.54,-1.0,-0.6717768616340211
-0.53,-1.0,-0.7003337910693878
-0.52,-1.0,-0.7261268229834782
-0.51,-1.0,-0.749054164063043
-0.5,-1.0,-0.7690253305673471
-0.49,-1.0,-0.7859615054261557
-0.48,-1.0,-0.7997958492947038
-0.47,-1.0,-0.8104737643380526
-0.45999999999999996,-1.0,-0.8179531097038019
-0.44999999999999996,-1.0,-0.82220436783278
-0.43999999999999995,-1.0,-0.8232107609513675
-0.42999999999999994,-1.0,-0.8209683172857019
-0.42000000000000004,-1.0,-0.8154858867364578
-0.41000000000000003,-1.0,-0.8067851059523277
-0.4,-1.0,-0.7949003129400587
-0.39,-1.0,-0.779878411548024
-0.38,-1.0,-0.7617786863581646
-0.37,-1.0,-0.7406725687168265
-0.36,-1.0,-0.7166433548278724
-0.35,-1.0,-0.6897858770206189
-0.33999999999999997,-1.0,-0.6602061294899562
-0.32999999999999996,-1.0,-0.6280208499856865
-0.31999999999999995,-1.0,-0.5933570591019579
-0.30999999999999994,-1.0,-0.5563515589850087
-0.29999999999999993,-1.0,-0.5171503934375955
-0.29000000000000004,-1.0,-0.4759082715508255
-0.28,-1.0,-0.43278795713805174
-0.27,-1.0,-0.3879596263804646
-0.26,-1.0,-0.34160019621944715
-0.25,-1.0,-0.2938926261462366
-0.24,-1.0,-0.2450251961443959
-0.22999999999999998,-1.0,-0.19519076363473747
-0.21999999999999997,-1.0,-0.1445860023551901
-0.20999999999999996,-1.0,-0.0934106261794081
-0.19999999999999996,-1.0,-0.041866600937351756
-0.18999999999999995,-1.0,0.009842652651573849
-0.17999999999999994,-1.0,0.061513061787163814
-0.16999999999999993,-1.0,0.11294070697052465
-0.16000000000000003,-1.0,0.16392262678117384
-0.15000000000000002,-1.0,0.2142576188730423
-0.14,-1.0,0.2637470340282141
-0.13,-1.0,0.3121955601346345
-0.12,-1.0,0.3594119929937881
-0.10999999999999999,-1.0,0.4052099909163159
-0.09999999999999998,-1.0,0.4494088101275324
-0.08999999999999997,-1.0,0.49183401808053145
-0.07999999999999996,-1.0,0.5323181818617554
-0.06999999999999995,-1.0,0.5707015289722159
-0.05999999999999994,-1.0,0.6068325778765504
-0.04999999999999993,-1.0,0.6405687358314397
-0.040000000000000036,-1.0,0.6717768616340213
-0.030000000000000027,-1.0,0.7003337910693879
-0.020000000000000018,-1.0,0.7261268229834782
-0.010000000000000009,-1.0,0.7490541640630426
0.0,-1.0,0.7690253305673467
0.010000000000000009,-1.0,0.7859615054261558
0.020000000000000018,-1.0,0.7997958492947042
0.030000000000000027,-1.0,0.8104737643380528
0.040000000000000036,-1.0,0.8179531097038021
0.050000000000000044,-1.0,0.8222043678327802
0.06000000000000005,-1.0,0.8232107609513674
0.07000000000000006,-1.0,0.8209683172857023
0.08000000000000007,-1.0,0.8154858867364576
0.09000000000000008,-1.0,0.8067851059523279
0.10000000000000009,-1.0,0.7949003129400585
0.1100000000000001,-1.0,0.779878411548024
0.1200000000000001,-1.0,0.7617786863581644
0.13000000000000012,-1.0,0.7406725687168266
0.14000000000000012,-1.0,0.7166433548278728
0.15000000000000013,-1.0,0.6897858770206188
0.15999999999999992,-1.0,0.660206129489956
0.16999999999999993,-1.0,0.6280208499856862
0.17999999999999994,-1.0,0.5933570591019577
0.18999999999999995,-1.0,0.5563515589850083
0.19999999999999996,-1.0,0.5171503934375956
0.20999999999999996,-1.0,0.47590827155082543
0.21999999999999997,-1.0,0.43278795713805196
0.22999999999999998,-1.0,0.38795962638046433
0.24,-1.0,0.34160019621944704
0.25,-1.0,0.29389262614623646
0.26,-1.0,0.24502519614439577
0.27,-1.0,0.19519076363473736
0.28,-1.0,0.14458600235519004
0.29000000000000004,-1.0,0.09341062617940801
0.30000000000000004,-1.0,0.04186660093735164
0.31000000000000005,-1.0,-0.009842652651573879
0.32000000000000006,-1.0,-0.061513061787163856
0.33000000000000007,-1.0,-0.11294070697052472
0.3400000000000001,-1.0,-0.16392262678117392
0.3500000000000001,-1.0,-0.21425761887304243
0.3600000000000001,-1.0,-0.2637470340282141
0.3700000000000001,-1.0,-0.31219556013463434
0.3800000000000001,-1.0,-0.35941199299378823
0.3900000000000001,-1.0,-0.40520999091631593
0.40000000000000013,-1.0,-0.4494088101275326
0.4099999999999999,-1.0,-0.49183401808053123
0.41999999999999993,-1.0,-0.5323181818617553
0.42999999999999994,-1.0,-0.5707015289722158
0.43999999999999995,-1.0,-0.6068325778765502
0.44999999999999996,-1.0,-0.6405687358314396
0.45999999999999996,-1.0,-0.671776861634021
0.47,-1.0,-0.7003337910693876
0.48,-1.0,-0.7261268229834781
0.49,-1.0,-0.7490541640630429
0.5,-1.0,-0.7690253305673469
0.51,-1.0,-0.7859615054261562
0.52,-1.0,-0.799795849294704
0.53,-1.0,-0.810473764338053
0.54,-1.0,-0.8179531097038018
0.55,-1.0,-0.8222043678327802
0.56,-1.0,-0.8232107609513672
0.5700000000000001,-1.0,-0.8209683172857023
0.5800000000000001,-1.0,-0.8154858867364575
0.5900000000000001,-1.0,-0.8067851059523277
0.6000000000000001,-1.0,-0.7949003129400585
0.6100000000000001,-1.0,-0.7798784115480235
0.6200000000000001,-1.0,-0.7617786863581645
0.6300000000000001,-1.0,-0.7406725687168263
0.6400000000000001,-1.0,-0.7166433548278727
0.6500000000000001,-1.0,-0.6897858770206187
0.6600000000000001,-1.0,-0.6602061294899564
0.6699999999999999,-1.0,-0.6280208499856862
0.6799999999999999,-1.0,-0.5933570591019577
0.69,-1.0,-0.5563515589850089
0.7,-1.0,-0.5171503934375957
0.71,-1.0,-0.4759082715508252
0.72,-1.0,-0.43278795713805185
0.73,-1.0,-0.38795962638046455
0.74,-1.0,-0.3416001962194471
0.75,-1.0,-0.29389262614623624
0.76,-1.0,-0.2450251961443958
0.77,-1.0,-0.19519076363473734
0.78,-1.0,-0.14458600235519004
0.79,-1.0,-0.09341062617940803
0.8,-1.0,-0.041866600937351624
0.81,-1.0,0.0098426526515739
0.8200000000000001,-1.0,0.06151306178716398
0.8300000000000001,-1.0,0.11294070697052482
0.8400000000000001,-1.0,0.16392262678117406
0.8500000000000001,-1.0,0.2142576188730424
0.8600000000000001,-1.0,0.2637470340282141
0.8700000000000001,-1.0,0.31219556013463445
0.8800000000000001,-1.0,0.35941199299378823
0.8900000000000001,-1.0,0.4052099909163158
0.9000000000000001,-1.0,0.44940881012753237
0.9100000000000001,-1.0,0.4918340180805313
0.9199999999999999,-1.0,0.5323181818617555
0.9299999999999999,-1.0,0.5707015289722156
0.94,-1.0,0.6068325778765502
0.95,-1.0,0.6405687358314401
0.96,-1.0,0.6717768616340211
0.97,-1.0,0.7003337910693879
0.98,-1.0,0.7261268229834783
0.99,-1.0,0.749054164063043
1.0,-1.0,0.7690253305673471

-1.0,-0.99,0.7859615054261557
-0.99,-0.99,0.8026701734018051
-0.98,-0.99,0.8162110689081582
-0.97,-0.99,0.8265307522168981
-0.96,-0.99,0.8335884962526197
-0.95,-0.99,0.8373564473239914
-0.94,-0.99,0.8378197350495475
-0.9299999999999999,-0.99,0.8349765310442905
-0.92,-0.99,0.8288380561354934
-0.91,-0.99,0.8194285360792188
-0.9,-0.99,0.8067851059523277
-0.89,-0.99,0.7909576635972977
-0.88,-0.99,0.7720086726982329
-0.87,-0.99,0.7500129162652412
-0.86,-0.99,0.7250572015000587
-0.85,-0.99,0.6972400172076825
-0.84,-0.99,0.6666711451060521
-0.83,-0.99,0.6334712265677627
-0.8200000000000001,-0.99,0.5977712865036842
-0.81,-0.99,0.5597122162674998
-0.8,-0.99,0.5194442176218955
-0.79,-0.99,0.4771262099608278
-0.78,-0.99,0.4329252031272751
-0.77,-0.99,0.38701563830169083
-0.76,-0.99,0.3395786995623568
-0.75,-0.99,0.29080159883460077
-0.74,-0.99,0.24087683705085763
-0.73,-0.99,0.19000144443743403
-0.72,-0.99,0.13837620292621872
-0.71,-0.99,0.08620485376012761
-0.7,-0.99,0.03369329341949658
-0.69,-0.99,-0.018951238957259555
-0.6799999999999999,-0.99,-0.07152097945184906
-0.6699999999999999,-0.99,-0.12380845931536937
-0.6599999999999999,-0.99,-0.17560732375267665
-0.6499999999999999,-0.99,-0.22671314631048717
-0.64,-0.99,-0.2769242356551945
-0.63,-0.99,-0.32604243155641977
-0.62,-0.99,-0.37387388693490964
-0.61,-0.99,-0.42022983288839943
-0.6,-0.99,-0.46492732367622747
-0.59,-0.99,-0.5077899587225951
-0.5800000000000001,-0.99,-0.54864857878905
-0.5700000000000001,-0.99,-0.5873419335687171
-0.56,-0.99,-0.6237173180675943
-0.55,-0.99,-0.6576311752613968
-0.54,-0.99,-0.6889496626495478
-0.53,-0.99,-0.7175491804703821
-0.52,-0.99,-0.743316859492938
-0.51,-0.99,-0.7661510064602459
-0.5,-0.99,-0.7859615054261558
-0.49,-0.99,-0.8026701734018049
-0.48,-0.99,-0.8162110689081579
-0.47,-0.99,-0.826530752216898
-0.45999999999999996,-0.99,-0.8335884962526199
-0.44999999999999996,-0.99,-0.8373564473239918
-0.43999999999999995,-0.99,-0.8378197350495472
-0.42999999999999994,-0.99,-0.8349765310442908
-0.42000000000000004,-0.99,-0.8288380561354933
-0.41000000000000003,-0.99,-0.8194285360792191
-0.4,-0.99,-0.8067851059523278
-0.39,-0.99,-0.7909576635972975
-0.38,-0.99,-0.7720086726982325
-0.37,-0.99,-0.7500129162652409
-0.36,-0.99,-0.7250572015000589
-0.35,-0.99,-0.6972400172076827
-0.33999999999999997,-0.99,-0.6666711451060521
-0.32999999999999996,-0.99,-0.6334712265677621
-0.31999999999999995,-0.99,-0.5977712865036842
-0.30999999999999994,-0.99,-0.5597122162674997
-0.29999999999999993,-0.99,-0.5194442176218959
-0.29000000000000004,-0.99,-0.47712620996082744
-0.28,-0.99,-0.4329252031272752
-0.27,-0.99,-0.3870156383016909
-0.26,-0.99,-0.33957869956235687
-0.25,-0.99,-0.29080159883460066
-0.24,-0.99,-0.24087683705085777
-0.22999999999999998,-0.99,-0.19000144443743391
-0.21999999999999997,-0.99,-0.13837620292621872
-0.20999999999999996,-0.99,-0.08620485376012754
-0.19999999999999996,-0.99,-0.03369329341949642
-0.18999999999999995,-0.99,0.01895123895725966
-0.17999999999999994,-0.99,0.07152097945184904
-0.16999999999999993,-0.99,0.12380845931536943
-0.16000000000000003,-0.99,0.1756073237526768
-0.15000000000000002,-0.99,0.22671314631048728
-0.14,-0.99,0.2769242356551944
-0.13,-0.99,0.32604243155641965
-0.12,-0.99,0.37387388693491
-0.10999999999999999,-0.99,0.42022983288839943
-0.09999999999999998,-0.99,0.4649273236762275
-0.08999999999999997,-0.99,0.5077899587225949
-0.07999999999999996,-0.99,0.54864857878905
-0.06999999999999995,-0.99,0.5873419335687176
-0.05999999999999994,-0.99,0.6237173180675943
-0.04999999999999993,-0.99,0.6576311752613969
-0.040000000000000036,-0.99,0.6889496626495478
-0.030000000000000027,-0.99,0.717549180470382
-0.020000000000000018,-0.99,0.7433168594929376
-0.010000000000000009,-0.99,0.7661510064602457
0.0,-0.99,0.785961505426156
0.010000000000000009,-0.99,0.8026701734018051
0.020000000000000018,-0.99,0.8162110689081581
0.030000000000000027,-0.99,0.8265307522168981
0.040000000000000036,-0.99,0.8335884962526201
0.050000000000000044,-0.99,0.8373564473239916
0.06000000000000005,-0.99,0.8378197350495475
0.07000000000000006,-0.99,0.8349765310442905
0.08000000000000007,-0.99,0.8288380561354938
0.09000000000000008,-0.99,0.8194285360792188
0.10000000000000009,-0.99,0.8067851059523279
0.1100000000000001,-0.99,0.7909576635972972
0.1200000000000001,-0.99,0.7720086726982325
0.13000000000000012,-0.99,0.7500129162652411
0.14000000000000012,-0.99,0.7250572015000587
0.15000000000000013,-0.99,0.6972400172076829
0.15999999999999992,-0.99,0.6666711451060516
0.16999999999999993,-0.99,0.6334712265677621
0.17999999999999994,-0.99,0.5977712865036838
0.18999999999999995,-0.99,0.5597122162674999
0.19999999999999996,-0.99,0.5194442176218956
0.20999999999999996,-0.99,0.47712620996082766
0.21999999999999997,-0.99,0.432925203127275
0.22999999999999998,-0.99,0.38701563830169083
0.24,-0.99,0.33957869956235665
0.25,-0.99,0.29080159883460055
0.26,-0.99,0.24087683705085755
0.27,-0.99,0.19000144443743383
0.28,-0.99,0.13837620292621866
0.29000000000000004,-0.99,0.0862048537601274
0.30000000000000004,-0.99,0.033693293419496416
0.31000000000000005,-0.99,-0.01895123895725973
0.32000000000000006,-0.99,-0.07152097945184914
0.33000000000000007,-0.99,-0.12380845931536956
0.3400000000000001,-0.99,-0.17560732375267693
0.3500000000000001,-0.99,-0.22671314631048736
0.3600000000000001,-0.99,-0.2769242356551943
0.3700000000000001,-0.99,-0.3260424315564198
0.3800000000000001,-0.99,-0.37387388693490986
0.3900000000000001,-0.99,-0.4202298328883996
0.40000000000000013,-0.99,-0.46492732367622736
0.4099999999999999,-0.99,-0.5077899587225949
0.41999999999999993,-0.99,-0.54864857878905
0.42999999999999994,-0.99,-0.5873419335687172
0.43999999999999995,-0.99,-0.6237173180675942
0.44999999999999996,-0.99,-0.6576311752613967
0.45999999999999996,-0.99,-0.6889496626495477
0.47,-0.99,-0.7175491804703821
0.48,-0.99,-0.7433168594929379
0.49,-0.99,-0.7661510064602459
0.5,-0.99,-0.7859615054261562
0.51,-0.99,-0.8026701734018051
0.52,-0.99,-0.8162110689081581
0.53,-0.99,-0.8265307522168976
0.54,-0.99,-0.83358849625262
0.55,-0.99,-0.8373564473239915
0.56,-0.99,-0.8378197350495477
0.5700000000000001,-0.99,-0.8349765310442907
0.5800000000000001,-0.99,-0.8288380561354933
0.5900000000000001,-0.99,-0.8194285360792188
0.6000000000000001,-0.99,-0.8067851059523274
0.6100000000000001,-0.99,-0.7909576635972974
0.6200000000000001,-0.99,-0.7720086726982321
0.6300000000000001,-0.99,-0.7500129162652411
0.6400000000000001,-0.99,-0.7250572015000587
0.6500000000000001,-0.99,-0.6972400172076831
0.6600000000000001,-0.99,-0.6666711451060515
0.6699999999999999,-0.99,-0.633471226567762
0.6799999999999999,-0.99,-0.5977712865036844
0.69,-0.99,-0.5597122162674999
0.7,-0.99,-0.5194442176218955
0.71,-0.99,-0.47712620996082755
0.72,-0.99,-0.43292520312727517
0.73,-0.99,-0.38701563830169095
0.74,-0.99,-0.3395786995623564
0.75,-0.99,-0.29080159883460066
0.76,-0.99,-0.24087683705085755
0.77,-0.99,-0.19000144443743383
0.78,-0.99,-0.13837620292621866
0.79,-0.99,-0.08620485376012738
0.8,-0.99,-0.033693293419496374
0.81,-0.99,0.018951238957259853
0.8200000000000001,-0.99,0.07152097945184922
0.8300000000000001,-0.99,0.12380845931536964
0.8400000000000001,-0.99,0.1756073237526769
0.8500000000000001,-0.99,0.2267131463104873
0.8600000000000001,-0.99,0.2769242356551944
0.8700000000000001,-0.99,0.32604243155641977
0.8800000000000001,-0.99,0.37387388693490986
0.8900000000000001,-0.99,0.4202298328883994
0.9000000000000001,-0.99,0.46492732367622736
0.9100000000000001,-0.99,0.5077899587225951
0.9199999999999999,-0.99,0.5486485787890498
0.9299999999999999,-0.99,0.5873419335687174
0.94,-0.99,0.6237173180675947
0.95,-0.99,0.6576311752613967
0.96,-0.99,0.6889496626495478
0.97,-0.99,0.7175491804703822
0.98,-0.99,0.743316859492938
0.99,-0.99,0.7661510064602463
1.0,-0.99,0.7859615054261557

-1.0,-0.98,0.7997958492947042
-0.99,-0.98,0.8162110689081581
-0.98,-0.98,0.8294050763239993
-0.97,-0.98,0.8393258008227249
-0.96,-0.98,0.8459340898370875
-0.95,-0.98,0.8492038634693877
-0.94,-0.98,0.8491222174169146
-0.9299999999999999,-0.98,0.8456894738993388
-0.92,-0.98,0.8389191803870517
-0.91,-0.98,0.8288380561354934
-0.9,-0.98,0.8154858867364578
-0.89,-0.98,0.7989153671025366
-0.88,-0.98,0.7791918935043742
-0.87,-0.98,0.7563933054814647
-0.86,-0.98,0.7306095786450509
-0.85,-0.98,0.701942469585492
-0.84,-0.98,0.6705051142854892
-0.83,-0.98,0.6364215816240497
-0.8200000000000001,-0.98,0.5998263837333042
-0.81,-0.98,0.5608639451405711
-0.8,-0.98,0.5196880327907318
-0.79,-0.98,0.47646114919834537
-0.78,-0.98,0.43135389112446654
-0.77,-0.98,0.38454427630916743
-0.76,-0.98,0.33621704091684457
-0.75,-0.98,0.2865629104669779
-0.74,-0.98,0.23577784712763883
-0.73,-0.98,0.18406227634233896
-0.72,-0.98,0.13162029584237142
-0.71,-0.98,0.07865887016630724
-0.7,-0.98,0.025387013865516204
-0.69,-0.98,-0.027985033380778734
-0.6799999999999999,-0.98,-0.08124663648546523
-0.6699999999999999,-0.98,-0.13418759623400106
-0.6599999999999999,-0.98,-0.18659897884468274
-0.6499999999999999,-0.98,-0.23827394053482898
-0.64,-0.98,-0.28900854383869296
-0.63,-0.98,-0.3386025624554696
-0.62,-0.98,-0.38686027145103097
-0.61,-0.98,-0.4335912196948215
-0.6,-0.98,-0.4786109814834622
-0.59,-0.98,-0.521741884384746
-0.5800000000000001,-0.98,-0.5628137104295567
-0.5700000000000001,-0.98,-0.6016643678844285
-0.56,-0.98,-0.6381405309535637
-0.55,-0.98,-0.6720982448857027
-0.54,-0.98,-0.7034034940977578
-0.53,-0.98,-0.7319327310730979
-0.52,-0.98,-0.7575733639471497
-0.51,-0.98,-0.7802242008560507
-0.5,-0.98,-0.799795849294704
-0.49,-0.98,-0.8162110689081579
-0.48,-0.98,-0.8294050763239991
-0.47,-0.98,-0.839325800822725
-0.45999999999999996,-0.98,-0.845934089837088
-0.44999999999999996,-0.98,-0.8492038634693871
-0.43999999999999995,-0.98,-0.8491222174169152
-0.42999999999999994,-0.98,-0.8456894738993386
-0.42000000000000004,-0.98,-0.8389191803870519
-0.41000000000000003,-0.98,-0.8288380561354936
-0.4,-0.98,-0.8154858867364578
-0.39,-0.98,-0.7989153671025363
-0.38,-0.98,-0.779191893504374
-0.37,-0.98,-0.7563933054814649
-0.36,-0.98,-0.7306095786450512
-0.35,-0.98,-0.7019424695854919
-0.33999999999999997,-0.98,-0.6705051142854888
-0.32999999999999996,-0.98,-0.6364215816240495
-0.31999999999999995,-0.98,-0.599826383733304
-0.30999999999999994,-0.98,-0.5608639451405714
-0.29999999999999993,-0.98,-0.5196880327907314
-0.29000000000000004,-0.98,-0.4764611491983454
-0.28,-0.98,-0.43135389112446665
-0.27,-0.98,-0.38454427630916743
-0.26,-0.98,-0.33621704091684446
-0.25,-0.98,-0.28656291046697796
-0.24,-0.98,-0.23577784712763872
-0.22999999999999998,-0.98,-0.18406227634233896
-0.21999999999999997,-0.98,-0.1316202958423714
-0.20999999999999996,-0.98,-0.07865887016630704
-0.19999999999999996,-0.98,-0.025387013865516114
-0.18999999999999995,-0.98,0.02798503338077876
-0.17999999999999994,-0.98,0.0812466364854653
-0.16999999999999993,-0.98,0.13418759623400117
-0.16000000000000003,-0.98,0.1865989788446829
-0.15000000000000002,-0.98,0.23827394053482895
-0.14,-0.98,0.2890085438386929
-0.13,-0.98,0.3386025624554699
-0.12,-0.98,0.38686027145103097
-0.10999999999999999,-0.98,0.43359121969482156
-0.09999999999999998,-0.98,0.47861098148346204
-0.08999999999999997,-0.98,0.5217418843847461
-0.07999999999999996,-0.98,0.5628137104295572
-0.06999999999999995,-0.98,0.6016643678844287
-0.05999999999999994,-0.98,0.6381405309535639
-0.04999999999999993,-0.98,0.6720982448857025
-0.040000000000000036,-0.98,0.7034034940977575
-0.030000000000000027,-0.98,0.7319327310730975
-0.020000000000000018,-0.98,0.7575733639471498
-0.010000000000000009,-0.98,0.7802242008560509
0.0,-0.98,0.7997958492947044
0.010000000000000009,-0.98,0.8162110689081583
0.020000000000000018,-0.98,0.8294050763239991
0.030000000000000027,-0.98,0.8393258008227252
0.040000000000000036,-0.98,0.8459340898370877
0.050000000000000044,-0.98,0.8492038634693876
0.06000000000000005,-0.98,0.8491222174169147
0.07000000000000006,-0.98,0.8456894738993391
0.08000000000000007,-0.98,0.8389191803870517
0.09000000000000008,-0.98,0.8288380561354936
0.10000000000000009,-0.98,0.8154858867364576
0.1100000000000001,-0.98,0.7989153671025364
0.1200000000000001,-0.98,0.7791918935043741
0.13000000000000012,-0.98,0.7563933054814647
0.14000000000000012,-0.98,0.7306095786450514
0.15000000000000013,-0.98,0.7019424695854916
0.15999999999999992,-0.98,0.6705051142854888
0.16999999999999993,-0.98,0.6364215816240494
0.17999999999999994,-0.98,0.5998263837333042
0.18999999999999995,-0.98,0.5608639451405711
0.19999999999999996,-0.98,0.5196880327907316
0.20999999999999996,-0.98,0.47646114919834537
0.21999999999999997,-0.98,0.4313538911244665
0.22999999999999998,-0.98,0.3845442763091672
0.24,-0.98,0.3362170409168443
0.25,-0.98,0.2865629104669778
0.26,-0.98,0.23577784712763863
0.27,-0.98,0.1840622763423389
0.28,-0.98,0.13162029584237123
0.29000000000000004,-0.98,0.07865887016630706
0.30000000000000004,-0.98,0.02538701386551604
0.31000000000000005,-0.98,-0.027985033380778852
0.32000000000000006,-0.98,-0.08124663648546543
0.33000000000000007,-0.98,-0.1341875962340013
0.3400000000000001,-0.98,-0.186598978844683
0.3500000000000001,-0.98,-0.2382739405348289
0.3600000000000001,-0.98,-0.289008543838693
0.3700000000000001,-0.98,-0.33860256245546977
0.3800000000000001,-0.98,-0.3868602714510312
0.3900000000000001,-0.98,-0.43359121969482145
0.40000000000000013,-0.98,-0.47861098148346204
0.4099999999999999,-0.98,-0.5217418843847463
0.41999999999999993,-0.98,-0.562813710429557
0.42999999999999994,-0.98,-0.6016643678844285
0.43999999999999995,-0.98,-0.6381405309535638
0.44999999999999996,-0.98,-0.6720982448857022
0.45999999999999996,-0.98,-0.7034034940977578
0.47,-0.98,-0.7319327310730981
0.48,-0.98,-0.7575733639471498
0.49,-0.98,-0.780224200856051
0.5,-0.98,-0.7997958492947039
0.51,-0.98,-0.8162110689081581
0.52,-0.98,-0.8294050763239988
0.53,-0.98,-0.839325800822725
0.54,-0.98,-0.8459340898370876
0.55,-0.98,-0.8492038634693876
0.56,-0.98,-0.8491222174169151
0.5700000000000001,-0.98,-0.8456894738993388
0.5800000000000001,-0.98,-0.8389191803870517
0.5900000000000001,-0.98,-0.8288380561354933
0.6000000000000001,-0.98,-0.8154858867364577
0.6100000000000001,-0.98,-0.798915367102536
0.6200000000000001,-0.98,-0.7791918935043741
0.6300000000000001,-0.98,-0.7563933054814647
0.6400000000000001,-0.98,-0.7306095786450515
0.6500000000000001,-0.98,-0.7019424695854914
0.6600000000000001,-0.98,-0.6705051142854888
0.6699999999999999,-0.98,-0.6364215816240497
0.6799999999999999,-0.98,-0.5998263837333042
0.69,-0.98,-0.5608639451405711
0.7,-0.98,-0.5196880327907317
0.71,-0.98,-0.47646114919834537
0.72,-0.98,-0.43135389112446665
0.73,-0.98,-0.384544276309167
0.74,-0.98,-0.33621704091684446
0.75,-0.98,-0.2865629104669778
0.76,-0.98,-0.2357778471276386
0.77,-0.98,-0.1840622763423389
0.78,-0.98,-0.1316202958423712
0.79,-0.98,-0.07865887016630699
0.8,-0.98,-0.0253870138655159
0.81,-0.98,0.027985033380778932
0.8200000000000001,-0.98,0.08124663648546548
0.8300000000000001,-0.98,0.13418759623400128
0.8400000000000001,-0.98,0.1865989788446829
0.8500000000000001,-0.98,0.23827394053482895
0.8600000000000001,-0.98,0.28900854383869296
0.8700000000000001,-0.98,0.3386025624554698
0.8800000000000001,-0.98,0.386860271451031
0.8900000000000001,-0.98,0.4335912196948214
0.9000000000000001,-0.98,0.47861098148346215
0.9100000000000001,-0.98,0.5217418843847461
0.9199999999999999,-0.98,0.562813710429557
0.9299999999999999,-0.98,0.6016643678844289
0.94,-0.98,0.6381405309535638
0.95,-0.98,0.6720982448857025
0.96,-0.98,0.7034034940977578
0.97,-0.98,0.7319327310730981
0.98,-0.98,0.7575733639471502
0.99,-0.98,0.7802242008560508
1.0,-0.98,0.7997958492947042

-1.0,-0.97,0.810473764338053
-0.99,-0.97,0.8265307522168981
-0.98,-0.97,0.8393258008227249
-0.97,-0.97,0.8488084139441885
-0.96,-0.97,0.8549411680394927
-0.95,-0.97,0.8576998599300107
-0.94,-0.97,0.8570736023191787
-0.9299999999999999,-0.97,0.853064866759676
-0.92,-0.97,0.8456894738993387
-0.91,-0.97,0.8349765310442909
-0.9,-0.97,0.8209683172857023
-0.89,-0.97,0.8037201166435347
-0.88,-0.97,0.7832999998857685
-0.87,-0.97,0.7597885558841839
-0.86,-0.97,0.7332785735668979
-0.85,-0.97,0.7038746757228573
-0.84,-0.97,0.6716929061034898
-0.83,-0.97,0.6368602714510307
-0.8200000000000001,-0.97,0.5995142402609365
-0.81,-0.97,0.5598022002565362
-0.8,-0.97,0.5178808767170209
-0.79,-0.97,0.4739157139543707
-0.78,-0.97,0.42808022238023774
-0.77,-0.97,0.38055529373962027
-0.76,-0.97,0.3315284872137886
-0.75,-0.97,0.2811932892098826
-0.74,-0.97,0.2297483497584592
-0.73,-0.97,0.1773966985325762
-0.72,-0.97,0.1243449435824275
-0.71,-0.97,0.07080245594776001
-0.7,-0.97,0.016980543366031928
-0.69,-0.97,-0.03690838366268946
-0.6799999999999999,-0.97,-0.09065165016293081
-0.6699999999999999,-0.97,-0.14403715601477862
-0.6599999999999999,-0.97,-0.19685421301615336
-0.6499999999999999,-0.97,-0.2488943763728885
-0.64,-0.97,-0.2999522673351041
-0.63,-0.97,-0.34982638373330416
-0.62,-0.97,-0.3983198952153814
-0.61,-0.97,-0.4452414200460938
-0.6,-0.97,-0.49040578040334
-0.59,-0.97,-0.5336347331904238
-0.5800000000000001,-0.97,-0.5747576734801247
-0.5700000000000001,-0.97,-0.6136123078144033
-0.56,-0.97,-0.6500452947025368
-0.55,-0.97,-0.683912849789925
-0.54,-0.97,-0.7150813133092526
-0.53,-0.97,-0.7434276775745252
-0.52,-0.97,-0.7688400724362107
-0.51,-0.97,-0.791218206781608
-0.5,-0.97,-0.810473764338053
-0.49,-0.97,-0.826530752216898
-0.48,-0.97,-0.839325800822725
-0.47,-0.97,-0.8488084139441889
-0.45999999999999996,-0.97,-0.8549411680394923
-0.44999999999999996,-0.97,-0.8576998599300113
-0.43999999999999995,-0.97,-0.8570736023191786
-0.42999999999999994,-0.97,-0.8530648667596763
-0.42000000000000004,-0.97,-0.8456894738993389
-0.41000000000000003,-0.97,-0.8349765310442907
-0.4,-0.97,-0.8209683172857021
-0.39,-0.97,-0.8037201166435344
-0.38,-0.97,-0.7832999998857688
-0.37,-0.97,-0.7597885558841843
-0.36,-0.97,-0.7332785735668979
-0.35,-0.97,-0.7038746757228573
-0.33999999999999997,-0.97,-0.6716929061034893
-0.32999999999999996,-0.97,-0.6368602714510307
-0.31999999999999995,-0.97,-0.5995142402609368
-0.30999999999999994,-0.97,-0.5598022002565357
-0.29999999999999993,-0.97,-0.5178808767170209
-0.29000000000000004,-0.97,-0.4739157139543707
-0.28,-0.97,-0.4280802223802377
-0.27,-0.97,-0.3805552937396202
-0.26,-0.97,-0.3315284872137886
-0.25,-0.97,-0.2811932892098825
-0.24,-0.97,-0.22974834975845917
-0.22999999999999998,-0.97,-0.17739669853257617
-0.21999999999999997,-0.97,-0.12434494358242731
-0.20999999999999996,-0.97,-0.07080245594775993
-0.19999999999999996,-0.97,-0.01698054336603188
-0.18999999999999995,-0.97,0.036908383662689545
-0.17999999999999994,-0.97,0.09065165016293089
-0.16999999999999993,-0.97,0.1440371560147788
-0.16000000000000003,-0.97,0.1968542130161533
-0.15000000000000002,-0.97,0.24889437637288853
-0.14,-0.97,0.2999522673351044
-0.13,-0.97,0.3498263837333042
-0.12,-0.97,0.39831989521538147
-0.10999999999999999,-0.97,0.4452414200460937
-0.09999999999999998,-0.97,0.49040578040334026
-0.08999999999999997,-0.97,0.5336347331904241
-0.07999999999999996,-0.97,0.5747576734801249
-0.06999999999999995,-0.97,0.6136123078144035
-0.05999999999999994,-0.97,0.6500452947025367
-0.04999999999999993,-0.97,0.6839128497899247
-0.040000000000000036,-0.97,0.7150813133092523
-0.030000000000000027,-0.97,0.7434276775745254
-0.020000000000000018,-0.97,0.768840072436211
-0.010000000000000009,-0.97,0.7912182067816083
0.0,-0.97,0.8104737643380532
0.010000000000000009,-0.97,0.8265307522168979
0.020000000000000018,-0.97,0.8393258008227252
0.030000000000000027,-0.97,0.8488084139441887
0.040000000000000036,-0.97,0.8549411680394927
0.050000000000000044,-0.97,0.8576998599300109
0.06000000000000005,-0.97,0.8570736023191792
0.07000000000000006,-0.97,0.8530648667596761
0.08000000000000007,-0.97,0.8456894738993388
0.09000000000000008,-0.97,0.8349765310442905
0.10000000000000009,-0.97,0.8209683172857023
0.1100000000000001,-0.97,0.8037201166435346
0.1200000000000001,-0.97,0.7832999998857686
0.13000000000000012,-0.97,0.7597885558841844
0.14000000000000012,-0.97,0.7332785735668974
0.15000000000000013,-0.97,0.7038746757228572
0.15999999999999992,-0.97,0.6716929061034895
0.16999999999999993,-0.97,0.6368602714510309
0.17999999999999994,-0.97,0.5995142402609366
0.18999999999999995,-0.97,0.5598022002565362
0.19999999999999996,-0.97,0.5178808767170209
0.20999999999999996,-0.97,0.47391571395437065
0.21999999999999997,-0.97,0.42808022238023746
0.22999999999999998,-0.97,0.38055529373962
0.24,-0.97,0.33152848721378847
0.25,-0.97,0.28119328920988246
0.26,-0.97,0.22974834975845912
0.27,-0.97,0.17739669853257603
0.28,-0.97,0.12434494358242731
0.29000000000000004,-0.97,0.07080245594775986
0.30000000000000004,-0.97,0.016980543366031796
0.31000000000000005,-0.97,-0.03690838366268967
0.32000000000000006,-0.97,-0.09065165016293102
0.33000000000000007,-0.97,-0.14403715601477884
0.3400000000000001,-0.97,-0.19685421301615333
0.3500000000000001,-0.97,-0.2488943763728886
0.3600000000000001,-0.97,-0.2999522673351043
0.3700000000000001,-0.97,-0.3498263837333044
0.3800000000000001,-0.97,-0.39831989521538136
0.3900000000000001,-0.97,-0.4452414200460937
0.40000000000000013,-0.97,-0.4904057804033403
0.4099999999999999,-0.97,-0.5336347331904239
0.41999999999999993,-0.97,-0.5747576734801246
0.42999999999999994,-0.97,-0.6136123078144033
0.43999999999999995,-0.97,-0.6500452947025366
0.44999999999999996,-0.97,-0.6839128497899248
0.45999999999999996,-0.97,-0.7150813133092528
0.47,-0.97,-0.7434276775745254
0.48,-0.97,-0.7688400724362111
0.49,-0.97,-0.7912182067816079
0.5,-0.97,-0.810473764338053
0.51,-0.97,-0.8265307522168981
0.52,-0.97,-0.8393258008227249
0.53,-0.97,-0.8488084139441885
0.54,-0.97,-0.8549411680394926
0.55,-0.97,-0.8576998599300112
0.56,-0.97,-0.8570736023191787
0.5700000000000001,-0.97,-0.853064866759676
0.5800000000000001,-0.97,-0.8456894738993387
0.5900000000000001,-0.97,-0.8349765310442907
0.6000000000000001,-0.97,-0.8209683172857016
0.6100000000000001,-0.97,-0.8037201166435344
0.6200000000000001,-0.97,-0.7832999998857685
0.6300000000000001,-0.97,-0.7597885558841845
0.6400000000000001,-0.97,-0.7332785735668974
0.6500000000000001,-0.97,-0.7038746757228572
0.6600000000000001,-0.97,-0.6716929061034898
0.6699999999999999,-0.97,-0.6368602714510309
0.6799999999999999,-0.97,-0.5995142402609366