TITLE = "Solution" 
VARIABLES = "x", "y", "sol" 
ZONE STRANDID=1, SOLUTIONTIME= 2.0, I= 201, J =201, DATAPACKING=POINT 
-1.0,-1.0,-0.27309766477467323
-0.99,-1.0,-0.2725587689164763
-0.98,-1.0,-0.27094420811762265
-0.97,-1.0,-0.26826035431196316
-0.96,-1.0,-0.2645177994443327
-0.95,-1.0,-0.25973131366898256
-0.94,-1.0,-0.25391978705853124
-0.9299999999999999,-1.0,-0.247106155053476
-0.92,-1.0,-0.23931730794648848
-0.91,-1.0,-0.23058398475871417
-0.9,-1.0,-0.22094065192689932
-0.89,-1.0,-0.21042536728011166
-0.88,-1.0,-0.19907962984287506
-0.87,-1.0,-0.18694821605748027
-0.86,-1.0,-0.17407900307182228
-0.85,-1.0,-0.16052277979017152
-0.84,-1.0,-0.14633304643257103
-0.83,-1.0,-0.131565803393911
-0.8200000000000001,-1.0,-0.11627933023595341
-0.81,-1.0,-0.10053395568452726
-0.8,-1.0,-0.08439181953960977
-0.79,-1.0,-0.0679166274379243
-0.78,-1.0,-0.05117339943589713
-0.77,-1.0,-0.03422821340519875
-0.76,-1.0,-0.01714794425357337
-0.75,-1.0,-1.2949335084724664e-13
-0.74,-1.0,0.01714794425331476
-0.73,-1.0,0.034228213404941615
-0.72,-1.0,0.05117339943564253
-0.71,-1.0,0.06791662743767339
-0.7,-1.0,0.08439181953936323
-0.69,-1.0,0.10053395568428633
-0.6799999999999999,-1.0,0.11627933023571888
-0.6699999999999999,-1.0,0.13156580339368396
-0.6599999999999999,-1.0,0.14633304643235218
-0.6499999999999999,-1.0,0.16052277978996185
-0.64,-1.0,0.17407900307162258
-0.63,-1.0,0.18694821605729134
-0.62,-1.0,0.19907962984269764
-0.61,-1.0,0.21042536727994637
-0.6,-1.0,0.22094065192674683
-0.59,-1.0,0.2305839847585751
-0.5800000000000001,-1.0,0.23931730794636336
-0.5700000000000001,-1.0,0.24710615505336558
-0.56,-1.0,0.2539197870584357
-0.55,-1.0,0.2597313136689025
-0.54,-1.0,0.2645177994442681
-0.53,-1.0,0.2682603543119146
-0.52,-1.0,0.2709442081175899
-0.51,-1.0,0.27255876891645986
-0.5,-1.0,0.2730976647746733
-0.49,-1.0,0.2725587689164762
-0.48,-1.0,0.27094420811762265
-0.47,-1.0,0.26826035431196305
-0.45999999999999996,-1.0,0.2645177994443325
-0.44999999999999996,-1.0,0.2597313136689826
-0.43999999999999995,-1.0,0.2539197870585311
-0.42999999999999994,-1.0,0.247106155053476
-0.42000000000000004,-1.0,0.2393173079464883
-0.41000000000000003,-1.0,0.23058398475871406
-0.4,-1.0,0.22094065192689938
-0.39,-1.0,0.21042536728011152
-0.38,-1.0,0.1990796298428751
-0.37,-1.0,0.18694821605748033
-0.36,-1.0,0.17407900307182228
-0.35,-1.0,0.1605227797901714
-0.33999999999999997,-1.0,0.1463330464325711
-0.32999999999999996,-1.0,0.13156580339391097
-0.31999999999999995,-1.0,0.11627933023595335
-0.30999999999999994,-1.0,0.10053395568452717
-0.29999999999999993,-1.0,0.08439181953960977
-0.29000000000000004,-1.0,0.06791662743792432
-0.28,-1.0,0.051173399435897146
-0.27,-1.0,0.03422821340519882
-0.26,-1.0,0.017147944253573334
-0.25,-1.0,1.2959396480885276e-13
-0.24,-1.0,-0.017147944253314635
-0.22999999999999998,-1.0,-0.03422821340494156
-0.21999999999999997,-1.0,-0.05117339943564253
-0.20999999999999996,-1.0,-0.06791662743767339
-0.19999999999999996,-1.0,-0.08439181953936326
-0.18999999999999995,-1.0,-0.10053395568428622
-0.17999999999999994,-1.0,-0.11627933023571879
-0.16999999999999993,-1.0,-0.13156580339368384
-0.16000000000000003,-1.0,-0.14633304643235207
-0.15000000000000002,-1.0,-0.1605227797899618
-0.14,-1.0,-0.17407900307162252
-0.13,-1.0,-0.18694821605729123
-0.12,-1.0,-0.1990796298426976
-0.10999999999999999,-1.0,-0.2104253672799464
-0.09999999999999998,-1.0,-0.220940651926747
-0.08999999999999997,-1.0,-0.2305839847585751
-0.07999999999999996,-1.0,-0.2393173079463636
-0.06999999999999995,-1.0,-0.24710615505336558
-0.05999999999999994,-1.0,-0.2539197870584359
-0.04999999999999993,-1.0,-0.2597313136689026
-0.040000000000000036,-1.0,-0.26451779944426806
-0.030000000000000027,-1.0,-0.26826035431191486
-0.020000000000000018,-1.0,-0.27094420811759024
-0.010000000000000009,-1.0,-0.2725587689164599
0.0,-1.0,-0.27309766477467345
0.010000000000000009,-1.0,-0.2725587689164762
0.020000000000000018,-1.0,-0.2709442081176228
0.030000000000000027,-1.0,-0.2682603543119633
0.040000000000000036,-1.0,-0.2645177994443325
0.050000000000000044,-1.0,-0.2597313136689828
0.06000000000000005,-1.0,-0.2539197870585311
0.07000000000000006,-1.0,-0.24710615505347602
0.08000000000000007,-1.0,-0.23931730794648842
0.09000000000000008,-1.0,-0.2305839847587142
0.10000000000000009,-1.0,-0.22094065192689924
0.1100000000000001,-1.0,-0.21042536728011152
0.1200000000000001,-1.0,-0.19907962984287506
0.13000000000000012,-1.0,-0.18694821605748024
0.14000000000000012,-1.0,-0.17407900307182228
0.15000000000000013,-1.0,-0.16052277979017143
0.15999999999999992,-1.0,-0.1463330464325711
0.16999999999999993,-1.0,-0.13156580339391089
0.17999999999999994,-1.0,-0.11627933023595327
0.18999999999999995,-1.0,-0.10053395568452714
0.19999999999999996,-1.0,-0.08439181953960971
0.20999999999999996,-1.0,-0.0679166274379244
0.21999999999999997,-1.0,-0.05117339943589712
0.22999999999999998,-1.0,-0.034228213405198694
0.24,-1.0,-0.017147944253573296
0.25,-1.0,-1.2953151476371767e-13
0.26,-1.0,0.01714794425331467
0.27,-1.0,0.03422821340494154
0.28,-1.0,0.051173399435642586
0.29000000000000004,-1.0,0.06791662743767338
0.30000000000000004,-1.0,0.0843918195393632
0.31000000000000005,-1.0,0.10053395568428626
0.32000000000000006,-1.0,0.11627933023571878
0.33000000000000007,-1.0,0.13156580339368382
0.3400000000000001,-1.0,0.14633304643235207
0.3500000000000001,-1.0,0.16052277978996163
0.3600000000000001,-1.0,0.17407900307162252
0.3700000000000001,-1.0,0.18694821605729134
0.3800000000000001,-1.0,0.19907962984269748
0.3900000000000001,-1.0,0.21042536727994635
0.40000000000000013,-1.0,0.22094065192674706
0.4099999999999999,-1.0,0.2305839847585751
0.41999999999999993,-1.0,0.2393173079463636
0.42999999999999994,-1.0,0.2471061550533655
0.43999999999999995,-1.0,0.2539197870584357
0.44999999999999996,-1.0,0.25973131366890245
0.45999999999999996,-1.0,0.26451779944426806
0.47,-1.0,0.2682603543119146
0.48,-1.0,0.27094420811759024
0.49,-1.0,0.27255876891645986
0.5,-1.0,0.2730976647746733
0.51,-1.0,0.2725587689164762
0.52,-1.0,0.2709442081176226
0.53,-1.0,0.26826035431196316
0.54,-1.0,0.26451779944433257
0.55,-1.0,0.25973131366898256
0.56,-1.0,0.25391978705853097
0.5700000000000001,-1.0,0.24710615505347613
0.5800000000000001,-1.0,0.23931730794648842
0.5900000000000001,-1.0,0.23058398475871417
0.6000000000000001,-1.0,0.22094065192689938
0.6100000000000001,-1.0,0.2104253672801117
0.6200000000000001,-1.0,0.19907962984287514
0.6300000000000001,-1.0,0.18694821605748022
0.6400000000000001,-1.0,0.17407900307182222
0.6500000000000001,-1.0,0.16052277979017163
0.6600000000000001,-1.0,0.14633304643257097
0.6699999999999999,-1.0,0.13156580339391105
0.6799999999999999,-1.0,0.11627933023595341
0.69,-1.0,0.10053395568452733
0.7,-1.0,0.08439181953960975
0.71,-1.0,0.0679166274379243
0.72,-1.0,0.051173399435897125
0.73,-1.0,0.03422821340519879
0.74,-1.0,0.017147944253573435
0.75,-1.0,1.296876398765555e-13
0.76,-1.0,-0.017147944253314746
0.77,-1.0,-0.034228213404941636
0.78,-1.0,-0.051173399435642475
0.79,-1.0,-0.06791662743767325
0.8,-1.0,-0.08439181953936317
0.81,-1.0,-0.10053395568428629
0.8200000000000001,-1.0,-0.11627933023571868
0.8300000000000001,-1.0,-0.13156580339368387
0.8400000000000001,-1.0,-0.14633304643235215
0.8500000000000001,-1.0,-0.16052277978996163
0.8600000000000001,-1.0,-0.17407900307162263
0.8700000000000001,-1.0,-0.18694821605729123
0.8800000000000001,-1.0,-0.19907962984269742
0.8900000000000001,-1.0,-0.2104253672799464
0.9000000000000001,-1.0,-0.22094065192674694
0.9100000000000001,-1.0,-0.2305839847585752
0.9199999999999999,-1.0,-0.2393173079463635
0.9299999999999999,-1.0,-0.24710615505336556
0.94,-1.0,-0.25391978705843576
0.95,-1.0,-0.25973131366890234
0.96,-1.0,-0.264517799444268
0.97,-1.0,-0.2682603543119146
0.98,-1.0,-0.27094420811759007
0.99,-1.0,-0.27255876891645986
1.0,-1.0,-0.27309766477467323

-1.0,-0.99,-0.27255876891647635
-0.99,-0.99,-0.26915501543192855
-0.98,-0.99,-0.264689030066701
-0.97,-0.99,-0.2591784380247156
-0.96,-0.99,-0.2526449870952116
-0.95,-0.99,-0.2451144618241584
-0.94,-0.99,-0.23661658175443082
-0.9299999999999999,-0.99,-0.2271848841363523
-0.92,-0.99,-0.2168565915714882
-0.91,-0.99,-0.20567246511204432
-0.9,-0.99,-0.1936766433956147
-0.89,-0.99,-0.18091646845014425
-0.88,-0.99,-0.16744229885657344
-0.87,-0.99,-0.15330731100652567
-0.86,-0.99,-0.1385672892393833
-0.85,-0.99,-0.1232804056869857
-0.84,-0.99,-0.10750699069480166
-0.83,-0.99,-0.09130929472561736
-0.8200000000000001,-0.99,-0.07475124268539977
-0.81,-0.99,-0.057898181640897224
-0.8,-0.99,-0.040816622924621106
-0.79,-0.99,-0.02357397964500288
-0.78,-0.99,-0.006238300637652608
-0.77,-0.99,0.011121998092305936
-0.76,-0.99,0.028438403376951943
-0.75,-0.99,0.045642575275739644
-0.74,-0.99,0.06266661678202304
-0.73,-0.99,0.07944334178152185
-0.72,-0.99,0.09590654020521952
-0.71,-0.99,0.11199123933025745
-0.7,-0.99,0.12763396019758955
-0.69,-0.99,0.1427729681344315
-0.6799999999999999,-0.99,0.15734851639281147
-0.6699999999999999,-0.99,0.17130308194268823
-0.6599999999999999,-0.99,0.18458159248907122
-0.6499999999999999,-0.99,0.19713164381720788
-0.64,-0.99,0.20890370660807953
-0.63,-0.99,0.21985132190799428
-0.62,-0.99,0.22993128448085312
-0.61,-0.99,0.2391038133194777
-0.6,-0.99,0.247332708643072
-0.59,-0.99,0.25458549476121833
-0.5800000000000001,-0.99,0.2608335482405916
-0.5700000000000001,-0.99,0.26605221086857184
-0.56,-0.99,0.2702208869679476
-0.55,-0.99,0.27332312467864106
-0.54,-0.99,0.27534668088568565
-0.53,-0.99,0.27628356953720706
-0.52,-0.99,0.27613009316172205
-0.51,-0.99,0.2748868574603674
-0.5,-0.99,0.2725587689164762
-0.49,-0.99,0.26915501543192855
-0.48,-0.99,0.2646890300667009
-0.47,-0.99,0.25917843802471546
-0.45999999999999996,-0.99,0.25264498709521155
-0.44999999999999996,-0.99,0.24511446182415828
-0.43999999999999995,-0.99,0.23661658175443082
-0.42999999999999994,-0.99,0.2271848841363521
-0.42000000000000004,-0.99,0.21685659157148815
-0.41000000000000003,-0.99,0.20567246511204437
-0.4,-0.99,0.19367664339561458
-0.39,-0.99,0.18091646845014428
-0.38,-0.99,0.16744229885657355
-0.37,-0.99,0.15330731100652564
-0.36,-0.99,0.1385672892393832
-0.35,-0.99,0.12328040568698578
-0.33999999999999997,-0.99,0.10750699069480163
-0.32999999999999996,-0.99,0.09130929472561733
-0.31999999999999995,-0.99,0.07475124268539969
-0.30999999999999994,-0.99,0.05789818164089721
-0.29999999999999993,-0.99,0.0408166229246211
-0.29000000000000004,-0.99,0.023573979645002914
-0.28,-0.99,0.0062383006376526984
-0.27,-0.99,-0.011121998092305985
-0.26,-0.99,-0.02843840337695184
-0.25,-0.99,-0.04564257527573952
-0.24,-0.99,-0.06266661678202301
-0.22999999999999998,-0.99,-0.07944334178152185
-0.21999999999999997,-0.99,-0.09590654020521952
-0.20999999999999996,-0.99,-0.11199123933025752
-0.19999999999999996,-0.99,-0.1276339601975894
-0.18999999999999995,-0.99,-0.14277296813443133
-0.17999999999999994,-0.99,-0.15734851639281136
-0.16999999999999993,-0.99,-0.17130308194268812
-0.16000000000000003,-0.99,-0.1845815924890711
-0.15000000000000002,-0.99,-0.19713164381720782
-0.14,-0.99,-0.20890370660807936
-0.13,-0.99,-0.21985132190799417
-0.12,-0.99,-0.22993128448085312
-0.10999999999999999,-0.99,-0.2391038133194778
-0.09999999999999998,-0.99,-0.247332708643072
-0.08999999999999997,-0.99,-0.25458549476121856
-0.07999999999999996,-0.99,-0.2608335482405915
-0.06999999999999995,-0.99,-0.266052210868572
-0.05999999999999994,-0.99,-0.2702208869679477
-0.04999999999999993,-0.99,-0.27332312467864095
-0.040000000000000036,-0.99,-0.27534668088568587
-0.030000000000000027,-0.99,-0.2762835695372075
-0.020000000000000018,-0.99,-0.27613009316172216
-0.010000000000000009,-0.99,-0.2748868574603675
0.0,-0.99,-0.2725587689164761
0.010000000000000009,-0.99,-0.26915501543192877
0.020000000000000018,-0.99,-0.2646890300667011
0.030000000000000027,-0.99,-0.25917843802471535
0.040000000000000036,-0.99,-0.2526449870952117
0.050000000000000044,-0.99,-0.24511446182415822
0.06000000000000005,-0.99,-0.23661658175443087
0.07000000000000006,-0.99,-0.2271848841363522
0.08000000000000007,-0.99,-0.2168565915714882
0.09000000000000008,-0.99,-0.20567246511204423
0.10000000000000009,-0.99,-0.19367664339561455
0.1100000000000001,-0.99,-0.1809164684501442
0.1200000000000001,-0.99,-0.1674422988565734
0.13000000000000012,-0.99,-0.15330731100652567
0.14000000000000012,-0.99,-0.13856728923938322
0.15000000000000013,-0.99,-0.12328040568698581
0.15999999999999992,-0.99,-0.10750699069480155
0.16999999999999993,-0.99,-0.09130929472561725
0.17999999999999994,-0.99,-0.07475124268539964
0.18999999999999995,-0.99,-0.05789818164089717
0.19999999999999996,-0.99,-0.040816622924621175
0.20999999999999996,-0.99,-0.023573979645002872
0.21999999999999997,-0.99,-0.006238300637652563
0.22999999999999998,-0.99,0.011121998092306006
0.24,-0.99,0.028438403376951887
0.25,-0.99,0.04564257527573954
0.26,-0.99,0.06266661678202297
0.27,-0.99,0.0794433417815219
0.28,-0.99,0.09590654020521952
0.29000000000000004,-0.99,0.11199123933025747
0.30000000000000004,-0.99,0.12763396019758946
0.31000000000000005,-0.99,0.14277296813443133
0.32000000000000006,-0.99,0.15734851639281128
0.33000000000000007,-0.99,0.1713030819426881
0.3400000000000001,-0.99,0.18458159248907097
0.3500000000000001,-0.99,0.19713164381720785
0.3600000000000001,-0.99,0.20890370660807947
0.3700000000000001,-0.99,0.21985132190799414
0.3800000000000001,-0.99,0.22993128448085312
0.3900000000000001,-0.99,0.2391038133194779
0.40000000000000013,-0.99,0.247332708643072
0.4099999999999999,-0.99,0.25458549476121867
0.41999999999999993,-0.99,0.2608335482405914
0.42999999999999994,-0.99,0.2660522108685719
0.43999999999999995,-0.99,0.2702208869679475
0.44999999999999996,-0.99,0.27332312467864095
0.45999999999999996,-0.99,0.2753466808856856
0.47,-0.99,0.27628356953720745
0.48,-0.99,0.2761300931617222
0.49,-0.99,0.2748868574603674
0.5,-0.99,0.2725587689164761
0.51,-0.99,0.26915501543192843
0.52,-0.99,0.26468903006670097
0.53,-0.99,0.2591784380247154
0.54,-0.99,0.2526449870952116
0.55,-0.99,0.24511446182415822
0.56,-0.99,0.23661658175443098
0.5700000000000001,-0.99,0.22718488413635224
0.5800000000000001,-0.99,0.2168565915714883
0.5900000000000001,-0.99,0.20567246511204434
0.6000000000000001,-0.99,0.19367664339561477
0.6100000000000001,-0.99,0.18091646845014428
0.6200000000000001,-0.99,0.16744229885657347
0.6300000000000001,-0.99,0.15330731100652564
0.6400000000000001,-0.99,0.1385672892393834
0.6500000000000001,-0.99,0.12328040568698569
0.6600000000000001,-0.99,0.10750699069480169
0.6699999999999999,-0.99,0.09130929472561736
0.6799999999999999,-0.99,0.07475124268539983
0.69,-0.99,0.057898181640897196
0.7,-0.99,0.04081662292462109
0.71,-0.99,0.02357397964500288
0.72,-0.99,0.006238300637652646
0.73,-0.99,-0.011121998092305874
0.74,-0.99,-0.028438403376951735
0.75,-0.99,-0.04564257527573962
0.76,-0.99,-0.06266661678202307
0.77,-0.99,-0.07944334178152179
0.78,-0.99,-0.09590654020521938
0.79,-0.99,-0.11199123933025744
0.8,-0.99,-0.12763396019758952
0.81,-0.99,-0.14277296813443122
0.8200000000000001,-0.99,-0.15734851639281136
0.8300000000000001,-0.99,-0.17130308194268823
0.8400000000000001,-0.99,-0.184581592489071
0.8500000000000001,-0.99,-0.19713164381720794
0.8600000000000001,-0.99,-0.2089037066080794
0.8700000000000001,-0.99,-0.2198513219079941
0.8800000000000001,-0.99,-0.22993128448085315
0.8900000000000001,-0.99,-0.23910381331947783
0.9000000000000001,-0.99,-0.24733270864307208
0.9100000000000001,-0.99,-0.25458549476121856
0.9199999999999999,-0.99,-0.26083354824059146
0.9299999999999999,-0.99,-0.2660522108685719
0.94,-0.99,-0.2702208869679475
0.95,-0.99,-0.2733231246786409
0.96,-0.99,-0.27534668088568565
0.97,-0.99,-0.2762835695372073
0.98,-0.99,-0.2761300931617221
0.99,-0.99,-0.2748868574603673
1.0,-0.99,-0.27255876891647635

-1.0,-0.98,-0.27094420811762265
-0.99,-0.98,-0.2646890300667009
-0.98,-0.98,-0.25738924533902147
-0.97,-0.98,-0.24907366284994933
-0.96,-0.98,-0.2397751004045413
-0.95,-0.98,-0.22953025518065978
-0.94,-0.98,-0.2183795589019795
-0.9299999999999999,-0.98,-0.2063670182724431
-0.92,-0.98,-0.19354004130190816
-0.91,-0.98,-0.17994925020838884
-0.9,-0.98,-0.16564828163528927
-0.89,-0.98,-0.15069357497207658
-0.88,-0.98,-0.1351441496137948
-0.87,-0.98,-0.11906137203847651
-0.86,-0.98,-0.10250871362168908
-0.85,-0.98,-0.08555150014401348
-0.84,-0.98,-0.06825665398003204
-0.83,-0.98,-0.05069242998629042
-0.8200000000000001,-0.98,-0.03292814613056121
-0.81,-0.98,-0.015033909925493614
-0.8,-0.98,0.002919658253709674
-0.79,-0.98,0.020861703875650606
-0.78,-0.98,0.03872141788320018
-0.77,-0.98,0.05642831614449809
-0.76,-0.98,0.07391251762161893
-0.75,-0.98,0.09110502015910445
-0.74,-0.98,0.10793797280394672
-0.73,-0.98,0.12434494358230094
-0.72,-0.98,0.14026118167613677
-0.71,-0.98,0.15562387296513572
-0.7,-0.98,0.17037238792532575
-0.69,-0.98,0.18444852090611466
-0.6799999999999999,-0.98,0.1977967198414008
-0.6699999999999999,-0.98,0.21036430548819876
-0.6599999999999999,-0.98,0.22210167932754396
-0.6499999999999999,-0.98,0.23296251930718886
-0.64,-0.98,0.24290396265357955
-0.63,-0.98,0.2518867750316413
-0.62,-0.98,0.25987550538477433
-0.61,-0.98,0.2668386258439787
-0.6,-0.98,0.2727486561539493
-0.59,-0.98,0.2775822721250885
-0.5800000000000001,-0.98,0.28132039768342687
-0.5700000000000001,-0.98,0.2839482801551735
-0.56,-0.98,0.28545554848877724
-0.55,-0.98,0.28583625418473074
-0.54,-0.98,0.28508889477158
-0.53,-0.98,0.283216419735493
-0.52,-0.98,0.2802262188799846
-0.51,-0.98,0.27613009316173837
-0.5,-0.98,0.2709442081176227
-0.49,-0.98,0.2646890300667008
-0.48,-0.98,0.25738924533902136
-0.47,-0.98,0.24907366284994933
-0.45999999999999996,-0.98,0.23977510040454114
-0.44999999999999996,-0.98,0.22953025518065984
-0.43999999999999995,-0.98,0.21837955890197927
-0.42999999999999994,-0.98,0.20636701827244308
-0.42000000000000004,-0.98,0.1935400413019082
-0.41000000000000003,-0.98,0.17994925020838873
-0.4,-0.98,0.1656482816352893
-0.39,-0.98,0.15069357497207664
-0.38,-0.98,0.13514414961379478
-0.37,-0.98,0.11906137203847644
-0.36,-0.98,0.10250871362168913
-0.35,-0.98,0.08555150014401344
-0.33999999999999997,-0.98,0.068256653980032
-0.32999999999999996,-0.98,0.050692429986290345
-0.31999999999999995,-0.98,0.0329281461305612
-0.30999999999999994,-0.98,0.015033909925493597
-0.29999999999999993,-0.98,-0.0029196582537096287
-0.29000000000000004,-0.98,-0.020861703875650495
-0.28,-0.98,-0.03872141788320024
-0.27,-0.98,-0.05642831614449797
-0.26,-0.98,-0.07391251762161884
-0.25,-0.98,-0.09110502015910445
-0.24,-0.98,-0.10793797280394671
-0.22999999999999998,-0.98,-0.12434494358230094
-0.21999999999999997,-0.98,-0.14026118167613683
-0.20999999999999996,-0.98,-0.15562387296513552
-0.19999999999999996,-0.98,-0.17037238792532558
-0.18999999999999995,-0.98,-0.18444852090611458
-0.17999999999999994,-0.98,-0.19779671984140068
-0.16999999999999993,-0.98,-0.21036430548819865
-0.16000000000000003,-0.98,-0.22210167932754388
-0.15000000000000002,-0.98,-0.2329625193071887
-0.14,-0.98,-0.2429039626535795
-0.13,-0.98,-0.2518867750316413
-0.12,-0.98,-0.25987550538477444
-0.10999999999999999,-0.98,-0.26683862584397877
-0.09999999999999998,-0.98,-0.27274865615394955
-0.08999999999999997,-0.98,-0.2775822721250884
-0.07999999999999996,-0.98,-0.28132039768342704
-0.06999999999999995,-0.98,-0.28394828015517354
-0.05999999999999994,-0.98,-0.2854555484887772
-0.04999999999999993,-0.98,-0.28583625418473096
-0.040000000000000036,-0.98,-0.28508889477158034
-0.030000000000000027,-0.98,-0.28321641973549316
-0.020000000000000018,-0.98,-0.2802262188799846
-0.010000000000000009,-0.98,-0.2761300931617384
0.0,-0.98,-0.27094420811762293
0.010000000000000009,-0.98,-0.26468903006670114
0.020000000000000018,-0.98,-0.2573892453390213
0.030000000000000027,-0.98,-0.24907366284994942
0.040000000000000036,-0.98,-0.23977510040454114
0.050000000000000044,-0.98,-0.22953025518065984
0.06000000000000005,-0.98,-0.21837955890197938
0.07000000000000006,-0.98,-0.20636701827244314
0.08000000000000007,-0.98,-0.19354004130190805
0.09000000000000008,-0.98,-0.1799492502083887
0.10000000000000009,-0.98,-0.1656482816352892
0.1100000000000001,-0.98,-0.15069357497207647
0.1200000000000001,-0.98,-0.13514414961379484
0.13000000000000012,-0.98,-0.11906137203847643
0.14000000000000012,-0.98,-0.10250871362168917
0.15000000000000013,-0.98,-0.08555150014401339
0.15999999999999992,-0.98,-0.06825665398003193
0.16999999999999993,-0.98,-0.050692429986290304
0.17999999999999994,-0.98,-0.032928146130561164
0.18999999999999995,-0.98,-0.015033909925493678
0.19999999999999996,-0.98,0.0029196582537096842
0.20999999999999996,-0.98,0.020861703875650648
0.21999999999999997,-0.98,0.03872141788320024
0.22999999999999998,-0.98,0.05642831614449801
0.24,-0.98,0.07391251762161884
0.25,-0.98,0.0911050201591044
0.26,-0.98,0.10793797280394676
0.27,-0.98,0.12434494358230094
0.28,-0.98,0.1402611816761368
0.29000000000000004,-0.98,0.1556238729651356
0.30000000000000004,-0.98,0.17037238792532558
0.31000000000000005,-0.98,0.18444852090611447
0.32000000000000006,-0.98,0.19779671984140065
0.33000000000000007,-0.98,0.21036430548819848
0.3400000000000001,-0.98,0.22210167932754393
0.3500000000000001,-0.98,0.23296251930718886
0.3600000000000001,-0.98,0.2429039626535795
0.3700000000000001,-0.98,0.2518867750316413
0.3800000000000001,-0.98,0.2598755053847745
0.3900000000000001,-0.98,0.26683862584397877
0.40000000000000013,-0.98,0.27274865615394955
0.4099999999999999,-0.98,0.2775822721250883
0.41999999999999993,-0.98,0.28132039768342687
0.42999999999999994,-0.98,0.28394828015517337
0.43999999999999995,-0.98,0.2854555484887771
0.44999999999999996,-0.98,0.28583625418473074
0.45999999999999996,-0.98,0.2850888947715804
0.47,-0.98,0.2832164197354933
0.48,-0.98,0.28022621887998467
0.49,-0.98,0.2761300931617383
0.5,-0.98,0.2709442081176226
0.51,-0.98,0.2646890300667009
0.52,-0.98,0.25738924533902136
0.53,-0.98,0.24907366284994928
0.54,-0.98,0.23977510040454114
0.55,-0.98,0.22953025518065995
0.56,-0.98,0.21837955890197935
0.5700000000000001,-0.98,0.20636701827244322
0.5800000000000001,-0.98,0.1935400413019082
0.5900000000000001,-0.98,0.17994925020838892
0.6000000000000001,-0.98,0.1656482816352893
0.6100000000000001,-0.98,0.15069357497207658
0.6200000000000001,-0.98,0.1351441496137948
0.6300000000000001,-0.98,0.11906137203847662
0.6400000000000001,-0.98,0.10250871362168906
0.6500000000000001,-0.98,0.08555150014401348
0.6600000000000001,-0.98,0.06825665398003204
0.6699999999999999,-0.98,0.050692429986290484
0.6799999999999999,-0.98,0.03292814613056119
0.69,-0.98,0.015033909925493602
0.7,-0.98,-0.0029196582537096773
0.71,-0.98,-0.020861703875650586
0.72,-0.98,-0.03872141788320011
0.73,-0.98,-0.05642831614449787
0.74,-0.98,-0.07391251762161893
0.75,-0.98,-0.09110502015910449
0.76,-0.98,-0.10793797280394668
0.77,-0.98,-0.12434494358230082
0.78,-0.98,-0.14026118167613671
0.79,-0.98,-0.15562387296513566
0.8,-0.98,-0.17037238792532547
0.81,-0.98,-0.18444852090611458
0.8200000000000001,-0.98,-0.1977967198414008
0.8300000000000001,-0.98,-0.21036430548819848
0.8400000000000001,-0.98,-0.222101679327544
0.8500000000000001,-0.98,-0.23296251930718875
0.8600000000000001,-0.98,-0.24290396265357936
0.8700000000000001,-0.98,-0.2518867750316413
0.8800000000000001,-0.98,-0.25987550538477444
0.8900000000000001,-0.98,-0.2668386258439788
0.9000000000000001,-0.98,-0.27274865615394944
0.9100000000000001,-0.98,-0.27758227212508835
0.9199999999999999,-0.98,-0.2813203976834269
0.9299999999999999,-0.98,-0.2839482801551733
0.94,-0.98,-0.285455548488777
0.95,-0.98,-0.28583625418473063
0.96,-0.98,-0.28508889477158017
0.97,-0.98,-0.28321641973549305
0.98,-0.98,-0.2802262188799845
0.99,-0.98,-0.27613009316173853
1.0,-0.98,-0.27094420811762265

-1.0,-0.97,-0.26826035431196305
-0.99,-0.97,-0.2591784380247156
-0.98,-0.97,-0.24907366284994933
-0.97,-0.97,-0.23798590771884712
-0.96,-0.97,-0.22595893093539757
-0.95,-0.97,-0.21304019748236236
-0.94,-0.97,-0.1992806916986721
-0.9299999999999999,-0.97,-0.18473471606753528
-0.92,-0.97,-0.16945967690934371
-0.91,-0.97,-0.15351585782515306
-0.9,-0.97,-0.13696618178485065
-0.89,-0.97,-0.11987596279893982
-0.88,-0.97,-0.10231264815397956
-0.87,-0.97,-0.08434555222895825
-0.86,-0.97,-0.0660455829431067
-0.85,-0.97,-0.047484961914735425
-0.84,-0.97,-0.028736939435502228
-0.83,-0.97,-0.009875505384975898
-0.8200000000000001,-0.97,0.009024902773615735
-0.81,-0.97,0.027889693764045695
-0.8,-0.97,0.046644416874778105
-0.79,-0.97,0.06521505578191272
-0.78,-0.97,0.0835283206578013
-0.77,-0.97,0.10151193741251319
-0.76,-0.97,0.11909493292665059
-0.75,-0.97,0.13620791514982603
-0.74,-0.97,0.15278334695938234
-0.73,-0.97,0.16875581269856166
-0.72,-0.97,0.1840622763422171
-0.71,-0.97,0.19864233027120504
-0.7,-0.97,0.21243843367366078
-0.69,-0.97,0.22539613963229502
-0.6799999999999999,-0.97,0.23746431000150198
-0.6699999999999999,-0.97,0.2485953172262565
-0.6599999999999999,-0.97,0.25874523230631635
-0.6499999999999999,-0.97,0.2678739981639156
-0.64,-0.97,0.2759455877307507
-0.63,-0.97,0.2829281461303596
-0.62,-0.97,0.288794116394767
-0.61,-0.97,0.29352034821924594
-0.6,-0.97,0.29708818932599523
-0.59,-0.97,0.2994835590761577
-0.5800000000000001,-0.97,0.30069700403967053
-0.5700000000000001,-0.97,0.30072373530363233
-0.56,-0.97,0.2995636473719566
-0.55,-0.97,0.2972213185817162
-0.54,-0.97,0.2937059930345381
-0.53,-0.97,0.2890315441143575
-0.52,-0.97,0.28321641973550943
-0.51,-0.97,0.27628356953723987
-0.5,-0.97,0.2682603543119631
-0.49,-0.97,0.25917843802471546
-0.48,-0.97,0.24907366284994936
-0.47,-0.97,0.23798590771884703
-0.45999999999999996,-0.97,0.22595893093539762
-0.44999999999999996,-0.97,0.21304019748236208
-0.43999999999999995,-0.97,0.19928069169867205
-0.42999999999999994,-0.97,0.18473471606753533
-0.42000000000000004,-0.97,0.16945967690934363
-0.41000000000000003,-0.97,0.15351585782515312
-0.4,-0.97,0.13696618178485068
-0.39,-0.97,0.11987596279893975
-0.38,-0.97,0.1023126481539795
-0.37,-0.97,0.08434555222895827
-0.36,-0.97,0.06604558294310667
-0.35,-0.97,0.047484961914735384
-0.33999999999999997,-0.97,0.028736939435502165
-0.32999999999999996,-0.97,0.009875505384975891
-0.31999999999999995,-0.97,-0.00902490277361577
-0.30999999999999994,-0.97,-0.02788969376404565
-0.29999999999999993,-0.97,-0.04664441687477799
-0.29000000000000004,-0.97,-0.06521505578191282
-0.28,-0.97,-0.08352832065780119
-0.27,-0.97,-0.10151193741251309
-0.26,-0.97,-0.11909493292665055
-0.25,-0.97,-0.13620791514982605
-0.24,-0.97,-0.15278334695938242
-0.22999999999999998,-0.97,-0.1687558126985617
-0.21999999999999997,-0.97,-0.18406227634221695
-0.20999999999999996,-0.97,-0.19864233027120484
-0.19999999999999996,-0.97,-0.21243843367366072
-0.18999999999999995,-0.97,-0.22539613963229493
-0.17999999999999994,-0.97,-0.23746431000150184
-0.16999999999999993,-0.97,-0.24859531722625647
-0.16000000000000003,-0.97,-0.2587452323063162
-0.15000000000000002,-0.97,-0.2678739981639155
-0.14,-0.97,-0.2759455877307507
-0.13,-0.97,-0.2829281461303597
-0.12,-0.97,-0.28879411639476704
-0.10999999999999999,-0.97,-0.29352034821924605
-0.09999999999999998,-0.97,-0.29708818932599523
-0.08999999999999997,-0.97,-0.29948355907615787
-0.07999999999999996,-0.97,-0.3006970040396704
-0.06999999999999995,-0.97,-0.3007237353036322
-0.05999999999999994,-0.97,-0.29956364737195673
-0.04999999999999993,-0.97,-0.29722131858171635
-0.040000000000000036,-0.97,-0.29370599303453826
-0.030000000000000027,-0.97,-0.28903154411435755
-0.020000000000000018,-0.97,-0.28321641973550943
-0.010000000000000009,-0.97,-0.2762835695372401
0.0,-0.97,-0.2682603543119634
0.010000000000000009,-0.97,-0.25917843802471546
0.020000000000000018,-0.97,-0.2490736628499494
0.030000000000000027,-0.97,-0.23798590771884698
0.040000000000000036,-0.97,-0.2259589309353976
0.050000000000000044,-0.97,-0.2130401974823622
0.06000000000000005,-0.97,-0.1992806916986721
0.07000000000000006,-0.97,-0.1847347160675352
0.08000000000000007,-0.97,-0.1694596769093436
0.09000000000000008,-0.97,-0.15351585782515295
0.10000000000000009,-0.97,-0.1369661817848506
0.1100000000000001,-0.97,-0.11987596279893982
0.1200000000000001,-0.97,-0.10231264815397947
0.13000000000000012,-0.97,-0.08434555222895831
0.14000000000000012,-0.97,-0.06604558294310663
0.15000000000000013,-0.97,-0.047484961914735335
0.15999999999999992,-0.97,-0.028736939435502113
0.16999999999999993,-0.97,-0.009875505384975853
0.17999999999999994,-0.97,0.009024902773615687
0.18999999999999995,-0.97,0.027889693764045716
0.19999999999999996,-0.97,0.046644416874778154
0.20999999999999996,-0.97,0.0652150557819128
0.21999999999999997,-0.97,0.0835283206578012
0.22999999999999998,-0.97,0.1015119374125131
0.24,-0.97,0.11909493292665053
0.25,-0.97,0.13620791514982605
0.26,-0.97,0.15278334695938242
0.27,-0.97,0.16875581269856174
0.28,-0.97,0.18406227634221703
0.29000000000000004,-0.97,0.19864233027120487
0.30000000000000004,-0.97,0.21243843367366058
0.31000000000000005,-0.97,0.22539613963229485
0.32000000000000006,-0.97,0.23746431000150173
0.33000000000000007,-0.97,0.24859531722625644
0.3400000000000001,-0.97,0.2587452323063164
0.3500000000000001,-0.97,0.2678739981639155
0.3600000000000001,-0.97,0.27594558773075073
0.3700000000000001,-0.97,0.2829281461303597
0.3800000000000001,-0.97,0.288794116394767
0.3900000000000001,-0.97,0.29352034821924605
0.40000000000000013,-0.97,0.297088189325995
0.4099999999999999,-0.97,0.2994835590761577
0.41999999999999993,-0.97,0.30069700403967037
0.42999999999999994,-0.97,0.30072373530363206
0.43999999999999995,-0.97,0.29956364737195657
0.44999999999999996,-0.97,0.2972213185817166
0.45999999999999996,-0.97,0.2937059930345383
0.47,-0.97,0.2890315441143575
0.48,-0.97,0.28321641973550926
0.49,-0.97,0.27628356953723965
0.5,-0.97,0.26826035431196316
0.51,-0.97,0.2591784380247156
0.52,-0.97,0.2490736628499493
0.53,-0.97,0.23798590771884698
0.54,-0.97,0.2259589309353977
0.55,-0.97,0.2130401974823622
0.56,-0.97,0.1992806916986722
0.5700000000000001,-0.97,0.1847347160675353
0.5800000000000001,-0.97,0.16945967690934383