TITLE = "Solution" 
VARIABLES = "x", "y", "sol" 
ZONE STRANDID=1, SOLUTIONTIME= 1.8999999999999815, I= 201, J =201, DATAPACKING=POINT 
-1.0,-1.0,0.08153688981544613
-0.99,-1.0,0.11123466176868205
-0.98,-1.0,0.14049344133019998
-0.97,-1.0,0.1691977574641354
-0.96,-1.0,0.19723432734846252
-0.95,-1.0,0.2244925034505384
-0.94,-1.0,0.250864710202364
-0.9299999999999999,-1.0,0.2762468685522049
-0.92,-1.0,0.30053880671706007
-0.91,-1.0,0.3236446555149231
-0.9,-1.0,0.3454732267166475
-0.89,-1.0,0.36593837292422515
-0.88,-1.0,0.3849593275552111
-0.87,-1.0,0.40246102359152386
-0.86,-1.0,0.4183743898346731
-0.85,-1.0,0.43263662349822263
-0.84,-1.0,0.44519143806169653
-0.83,-1.0,0.4559892854077624
-0.8200000000000001,-1.0,0.4649875513660125
-0.81,-1.0,0.47215072389162627
-0.8,-1.0,0.47745053321518693
-0.79,-1.0,0.4808660634105481
-0.78,-1.0,0.4823838349404348
-0.77,-1.0,0.4819978578540233
-0.76,-1.0,0.479709655426537
-0.75,-1.0,0.47552825814757693
-0.74,-1.0,0.46947016808190434
-0.73,-1.0,0.4615592937433309
-0.72,-1.0,0.4518268557387358
-0.71,-1.0,0.4403112635545951
-0.7,-1.0,0.4270579639722867
-0.69,-1.0,0.41211926171040436
-0.6799999999999999,-1.0,0.39555411300193244
-0.6699999999999999,-1.0,0.3774278929209264
-0.6599999999999999,-1.0,0.35781213737696427
-0.6499999999999999,-1.0,0.3367842607955912
-0.64,-1.0,0.31442725059895105
-0.63,-1.0,0.29082933969234387
-0.62,-1.0,0.2660836582492573
-0.61,-1.0,0.2402878661691216
-0.6,-1.0,0.21354376765830027
-0.59,-1.0,0.18595690945539906
-0.5800000000000001,-1.0,0.15763616428650815
-0.5700000000000001,-1.0,0.12869330119429145
-0.56,-1.0,0.09924254443663766
-0.55,-1.0,0.06940012269569829
-0.54,-1.0,0.039283810376379055
-0.53,-1.0,0.009012462804570128
-0.52,-1.0,-0.021294452840525883
-0.51,-1.0,-0.051517329008770374
-0.5,-1.0,-0.08153688981544621
-0.49,-1.0,-0.11123466176868212
-0.48,-1.0,-0.1404934413301998
-0.47,-1.0,-0.16919775746413523
-0.45999999999999996,-1.0,-0.19723432734846263
-0.44999999999999996,-1.0,-0.22449250345053845
-0.43999999999999995,-1.0,-0.25086471020236406
-0.42999999999999994,-1.0,-0.2762468685522048
-0.42000000000000004,-1.0,-0.30053880671706007
-0.41000000000000003,-1.0,-0.3236446555149232
-0.4,-1.0,-0.3454732267166475
-0.39,-1.0,-0.36593837292422493
-0.38,-1.0,-0.38495932755521073
-0.37,-1.0,-0.4024610235915236
-0.36,-1.0,-0.4183743898346731
-0.35,-1.0,-0.43263662349822235
-0.33999999999999997,-1.0,-0.4451914380616964
-0.32999999999999996,-1.0,-0.45598928540776196
-0.31999999999999995,-1.0,-0.46498755136601244
-0.30999999999999994,-1.0,-0.47215072389162627
-0.29999999999999993,-1.0,-0.4774505332151874
-0.29000000000000004,-1.0,-0.4808660634105483
-0.28,-1.0,-0.48238383494043524
-0.27,-1.0,-0.4819978578540236
-0.26,-1.0,-0.47970965542653715
-0.25,-1.0,-0.4755282581475768
-0.24,-1.0,-0.46947016808190456
-0.22999999999999998,-1.0,-0.46155929374333093
-0.21999999999999997,-1.0,-0.4518268557387357
-0.20999999999999996,-1.0,-0.4403112635545953
-0.19999999999999996,-1.0,-0.42705796397228646
-0.18999999999999995,-1.0,-0.4121192617104042
-0.17999999999999994,-1.0,-0.3955541130019327
-0.16999999999999993,-1.0,-0.3774278929209268
-0.16000000000000003,-1.0,-0.35781213737696427
-0.15000000000000002,-1.0,-0.3367842607955911
-0.14,-1.0,-0.31442725059895105
-0.13,-1.0,-0.2908293396923437
-0.12,-1.0,-0.2660836582492574
-0.10999999999999999,-1.0,-0.24028786616912173
-0.09999999999999998,-1.0,-0.21354376765830024
-0.08999999999999997,-1.0,-0.18595690945539908
-0.07999999999999996,-1.0,-0.15763616428650812
-0.06999999999999995,-1.0,-0.12869330119429145
-0.05999999999999994,-1.0,-0.09924254443663769
-0.04999999999999993,-1.0,-0.06940012269569823
-0.040000000000000036,-1.0,-0.039283810376379125
-0.030000000000000027,-1.0,-0.009012462804570062
-0.020000000000000018,-1.0,0.021294452840525883
-0.010000000000000009,-1.0,0.051517329008770416
0.0,-1.0,0.08153688981544616
0.010000000000000009,-1.0,0.11123466176868196
0.020000000000000018,-1.0,0.14049344133019995
0.030000000000000027,-1.0,0.16919775746413546
0.040000000000000036,-1.0,0.1972343273484627
0.050000000000000044,-1.0,0.22449250345053834
0.06000000000000005,-1.0,0.2508647102023639
0.07000000000000006,-1.0,0.27624686855220504
0.08000000000000007,-1.0,0.30053880671705996
0.09000000000000008,-1.0,0.32364465551492316
0.10000000000000009,-1.0,0.3454732267166474
0.1100000000000001,-1.0,0.3659383729242251
0.1200000000000001,-1.0,0.3849593275552108
0.13000000000000012,-1.0,0.4024610235915237
0.14000000000000012,-1.0,0.4183743898346729
0.15000000000000013,-1.0,0.4326366234982224
0.15999999999999992,-1.0,0.44519143806169637
0.16999999999999993,-1.0,0.45598928540776246
0.17999999999999994,-1.0,0.46498755136601255
0.18999999999999995,-1.0,0.4721507238916263
0.19999999999999996,-1.0,0.4774505332151874
0.20999999999999996,-1.0,0.48086606341054805
0.21999999999999997,-1.0,0.482383834940435
0.22999999999999998,-1.0,0.48199785785402316
0.24,-1.0,0.4797096554265369
0.25,-1.0,0.4755282581475765
0.26,-1.0,0.46947016808190445
0.27,-1.0,0.46155929374333104
0.28,-1.0,0.45182685573873593
0.29000000000000004,-1.0,0.4403112635545952
0.30000000000000004,-1.0,0.4270579639722865
0.31000000000000005,-1.0,0.4121192617104042
0.32000000000000006,-1.0,0.3955541130019322
0.33000000000000007,-1.0,0.3774278929209264
0.3400000000000001,-1.0,0.35781213737696427
0.3500000000000001,-1.0,0.3367842607955911
0.3600000000000001,-1.0,0.314427250598951
0.3700000000000001,-1.0,0.2908293396923439
0.3800000000000001,-1.0,0.2660836582492574
0.3900000000000001,-1.0,0.24028786616912173
0.40000000000000013,-1.0,0.2135437676583003
0.4099999999999999,-1.0,0.1859569094553992
0.41999999999999993,-1.0,0.15763616428650817
0.42999999999999994,-1.0,0.12869330119429154
0.43999999999999995,-1.0,0.09924254443663774
0.44999999999999996,-1.0,0.06940012269569845
0.45999999999999996,-1.0,0.03928381037637915
0.47,-1.0,0.00901246280457015
0.48,-1.0,-0.021294452840525772
0.49,-1.0,-0.05151732900877029
0.5,-1.0,-0.08153688981544611
0.51,-1.0,-0.11123466176868196
0.52,-1.0,-0.14049344133019992
0.53,-1.0,-0.16919775746413548
0.54,-1.0,-0.19723432734846247
0.55,-1.0,-0.22449250345053823
0.56,-1.0,-0.250864710202364
0.5700000000000001,-1.0,-0.2762468685522049
0.5800000000000001,-1.0,-0.30053880671705985
0.5900000000000001,-1.0,-0.323644655514923
0.6000000000000001,-1.0,-0.34547322671664726
0.6100000000000001,-1.0,-0.36593837292422504
0.6200000000000001,-1.0,-0.38495932755521056
0.6300000000000001,-1.0,-0.40246102359152375
0.6400000000000001,-1.0,-0.418374389834673
0.6500000000000001,-1.0,-0.4326366234982223
0.6600000000000001,-1.0,-0.4451914380616965
0.6699999999999999,-1.0,-0.45598928540776223
0.6799999999999999,-1.0,-0.46498755136601244
0.69,-1.0,-0.47215072389162627
0.7,-1.0,-0.4774505332151874
0.71,-1.0,-0.48086606341054794
0.72,-1.0,-0.482383834940435
0.73,-1.0,-0.4819978578540235
0.74,-1.0,-0.47970965542653704
0.75,-1.0,-0.4755282581475766
0.76,-1.0,-0.46947016808190434
0.77,-1.0,-0.46155929374333093
0.78,-1.0,-0.4518268557387357
0.79,-1.0,-0.44031126355459516
0.8,-1.0,-0.42705796397228646
0.81,-1.0,-0.41211926171040425
0.8200000000000001,-1.0,-0.3955541130019324
0.8300000000000001,-1.0,-0.3774278929209264
0.8400000000000001,-1.0,-0.35781213737696427
0.8500000000000001,-1.0,-0.33678426079559115
0.8600000000000001,-1.0,-0.3144272505989513
0.8700000000000001,-1.0,-0.2908293396923438
0.8800000000000001,-1.0,-0.2660836582492576
0.8900000000000001,-1.0,-0.24028786616912168
0.9000000000000001,-1.0,-0.21354376765830008
0.9100000000000001,-1.0,-0.18595690945539908
0.9199999999999999,-1.0,-0.15763616428650817
0.9299999999999999,-1.0,-0.1286933011942915
0.94,-1.0,-0.09924254443663771
0.95,-1.0,-0.06940012269569831
0.96,-1.0,-0.0392838103763791
0.97,-1.0,-0.009012462804570158
0.98,-1.0,0.0212944528405258
0.99,-1.0,0.051517329008770346
1.0,-1.0,0.08153688981544613

-1.0,-0.99,0.11123466176868207
-0.99,-0.99,0.1423547297100577
-0.98,-0.99,0.17291298856895726
-0.97,-0.99,0.20278883885840546
-0.96,-0.99,0.2318643742462876
-0.95,-0.99,0.26002484687777605
-0.94,-0.99,0.2871591202326904
-0.9299999999999999,-0.99,0.31316010773056957
-0.92,-0.99,0.33792519535248033
-0.91,-0.99,0.3613566466116716
-0.9,-0.99,0.38336198827483486
-0.89,-0.99,0.4038543753117102
-0.88,-0.99,0.4227529336327437
-0.87,-0.99,0.4399830792621727
-0.86,-0.99,0.455476812686903
-0.85,-0.99,0.46917298721951983
-0.84,-0.99,0.4810175503163302
-0.83,-0.99,0.49096375689805727
-0.8200000000000001,-0.99,0.4989723538313126
-0.81,-0.99,0.5050117348427801
-0.8,-0.99,0.5090580652547392
-0.79,-0.99,0.5110953760496451
-0.78,-0.99,0.5111156268925504
-0.77,-0.99,0.5091187378626292
-0.76,-0.99,0.5051125897685904
-0.75,-0.99,0.49911299304672674
-0.74,-0.99,0.49114362536434436
-0.73,-0.99,0.48123593817482785
-0.72,-0.99,0.46942903259312213
-0.71,-0.99,0.45576950508149716
-0.7,-0.99,0.44031126355459527
-0.69,-0.99,0.42311531462952545
-0.6799999999999999,-0.99,0.4042495228606128
-0.6699999999999999,-0.99,0.38378834290900904
-0.6599999999999999,-0.99,0.361812525704159
-0.6499999999999999,-0.99,0.3384087997567743
-0.64,-0.99,0.3136695288810243
-0.63,-0.99,0.287692347676757
-0.62,-0.99,0.26057977621034145
-0.61,-0.99,0.23243881541479938
-0.6,-0.99,0.2033805248060088
-0.59,-0.99,0.1735195841815323
-0.5800000000000001,-0.99,0.14297384103184865
-0.5700000000000001,-0.99,0.11186384545014716
-0.56,-0.99,0.08031237437618373
-0.55,-0.99,0.0484439470517911
-0.54,-0.99,0.016384333600319337
-0.53,-0.99,-0.015739941330582947
-0.52,-0.99,-0.04780209790394852
-0.51,-0.99,-0.07967560143558852
-0.5,-0.99,-0.11123466176868213
-0.49,-0.99,-0.14235472971005753
-0.48,-0.99,-0.1729129885689571
-0.47,-0.99,-0.20278883885840554
-0.45999999999999996,-0.99,-0.23186437424628764
-0.44999999999999996,-0.99,-0.26002484687777616
-0.43999999999999995,-0.99,-0.28715912023269025
-0.42999999999999994,-0.99,-0.31316010773056957
-0.42000000000000004,-0.99,-0.33792519535248045
-0.41000000000000003,-0.99,-0.3613566466116716
-0.4,-0.99,-0.3833619882748347
-0.39,-0.99,-0.40385437531170987
-0.38,-0.99,-0.42275293363274336
-0.37,-0.99,-0.4399830792621729
-0.36,-0.99,-0.45547681268690277
-0.35,-0.99,-0.4691729872195196
-0.33999999999999997,-0.99,-0.48101755031632976
-0.32999999999999996,-0.99,-0.49096375689805727
-0.31999999999999995,-0.99,-0.49897235383131255
-0.30999999999999994,-0.99,-0.5050117348427803
-0.29999999999999993,-0.99,-0.5090580652547392
-0.29000000000000004,-0.99,-0.5110953760496456
-0.28,-0.99,-0.5111156268925506
-0.27,-0.99,-0.5091187378626292
-0.26,-0.99,-0.5051125897685902
-0.25,-0.99,-0.49911299304672674
-0.24,-0.99,-0.4911436253643444
-0.22999999999999998,-0.99,-0.4812359381748278
-0.21999999999999997,-0.99,-0.4694290325931224
-0.20999999999999996,-0.99,-0.4557695050814967
-0.19999999999999996,-0.99,-0.44031126355459516
-0.18999999999999995,-0.99,-0.42311531462952573
-0.17999999999999994,-0.99,-0.40424952286061316
-0.16999999999999993,-0.99,-0.383788342909009
-0.16000000000000003,-0.99,-0.3618125257041589
-0.15000000000000002,-0.99,-0.3384087997567744
-0.14,-0.99,-0.31366952888102406
-0.13,-0.99,-0.28769234767675705
-0.12,-0.99,-0.26057977621034156
-0.10999999999999999,-0.99,-0.2324388154147994
-0.09999999999999998,-0.99,-0.20338052480600882
-0.08999999999999997,-0.99,-0.17351958418153224
-0.07999999999999996,-0.99,-0.14297384103184868
-0.06999999999999995,-0.99,-0.11186384545014719
-0.05999999999999994,-0.99,-0.08031237437618366
-0.04999999999999993,-0.99,-0.048443947051791184
-0.040000000000000036,-0.99,-0.01638433360031926
-0.030000000000000027,-0.99,0.015739941330582936
-0.020000000000000018,-0.99,0.04780209790394854
-0.010000000000000009,-0.99,0.07967560143558847
0.0,-0.99,0.11123466176868194
0.010000000000000009,-0.99,0.14235472971005764
0.020000000000000018,-0.99,0.17291298856895732
0.030000000000000027,-0.99,0.20278883885840568
0.040000000000000036,-0.99,0.23186437424628753
0.050000000000000044,-0.99,0.26002484687777594
0.06000000000000005,-0.99,0.2871591202326905
0.07000000000000006,-0.99,0.31316010773056946
0.08000000000000007,-0.99,0.3379251953524804
0.09000000000000008,-0.99,0.36135664661167144
0.10000000000000009,-0.99,0.3833619882748348
0.1100000000000001,-0.99,0.40385437531170987
0.1200000000000001,-0.99,0.4227529336327436
0.13000000000000012,-0.99,0.4399830792621727
0.14000000000000012,-0.99,0.45547681268690277
0.15000000000000013,-0.99,0.46917298721951955
0.15999999999999992,-0.99,0.4810175503163302
0.16999999999999993,-0.99,0.49096375689805744
0.17999999999999994,-0.99,0.4989723538313127
0.18999999999999995,-0.99,0.5050117348427805
0.19999999999999996,-0.99,0.509058065254739
0.20999999999999996,-0.99,0.5110953760496454
0.21999999999999997,-0.99,0.5111156268925503
0.22999999999999998,-0.99,0.509118737862629
0.24,-0.99,0.50511258976859
0.25,-0.99,0.4991129930467269
0.26,-0.99,0.4911436253643445
0.27,-0.99,0.4812359381748278
0.28,-0.99,0.4694290325931223
0.29000000000000004,-0.99,0.45576950508149683
0.30000000000000004,-0.99,0.44031126355459516
0.31000000000000005,-0.99,0.4231153146295253
0.32000000000000006,-0.99,0.4042495228606127
0.33000000000000007,-0.99,0.38378834290900915
0.3400000000000001,-0.99,0.3618125257041589
0.3500000000000001,-0.99,0.3384087997567742
0.3600000000000001,-0.99,0.3136695288810243
0.3700000000000001,-0.99,0.2876923476767571
0.3800000000000001,-0.99,0.2605797762103415
0.3900000000000001,-0.99,0.23243881541479938
0.40000000000000013,-0.99,0.20338052480600888
0.4099999999999999,-0.99,0.1735195841815323
0.41999999999999993,-0.99,0.1429738410318487
0.42999999999999994,-0.99,0.11186384545014723
0.43999999999999995,-0.99,0.08031237437618388
0.44999999999999996,-0.99,0.04844394705179121
0.45999999999999996,-0.99,0.01638433360031936
0.47,-0.99,-0.015739941330582825
0.48,-0.99,-0.047802097903948404
0.49,-0.99,-0.07967560143558844
0.5,-0.99,-0.11123466176868195
0.51,-0.99,-0.14235472971005758
0.52,-0.99,-0.17291298856895732
0.53,-0.99,-0.20278883885840543
0.54,-0.99,-0.23186437424628742
0.55,-0.99,-0.26002484687777605
0.56,-0.99,-0.28715912023269036
0.5700000000000001,-0.99,-0.3131601077305694
0.5800000000000001,-0.99,-0.3379251953524801
0.5900000000000001,-0.99,-0.36135664661167144
0.6000000000000001,-0.99,-0.3833619882748348
0.6100000000000001,-0.99,-0.40385437531170965
0.6200000000000001,-0.99,-0.4227529336327437
0.6300000000000001,-0.99,-0.4399830792621726
0.6400000000000001,-0.99,-0.4554768126869027
0.6500000000000001,-0.99,-0.46917298721951967
0.6600000000000001,-0.99,-0.4810175503163299
0.6699999999999999,-0.99,-0.4909637568980572
0.6799999999999999,-0.99,-0.49897235383131255
0.69,-0.99,-0.5050117348427805
0.7,-0.99,-0.509058065254739
0.71,-0.99,-0.5110953760496453
0.72,-0.99,-0.5111156268925504
0.73,-0.99,-0.5091187378626292
0.74,-0.99,-0.5051125897685902
0.75,-0.99,-0.4991129930467266
0.76,-0.99,-0.49114362536434447
0.77,-0.99,-0.48123593817482774
0.78,-0.99,-0.46942903259312224
0.79,-0.99,-0.45576950508149683
0.8,-0.99,-0.4403112635545952
0.81,-0.99,-0.42311531462952545
0.8200000000000001,-0.99,-0.4042495228606127
0.8300000000000001,-0.99,-0.38378834290900904
0.8400000000000001,-0.99,-0.3618125257041589
0.8500000000000001,-0.99,-0.3384087997567745
0.8600000000000001,-0.99,-0.3136695288810242
0.8700000000000001,-0.99,-0.28769234767675733
0.8800000000000001,-0.99,-0.26057977621034145
0.8900000000000001,-0.99,-0.23243881541479916
0.9000000000000001,-0.99,-0.20338052480600877
0.9100000000000001,-0.99,-0.1735195841815323
0.9199999999999999,-0.99,-0.1429738410318487
0.9299999999999999,-0.99,-0.11186384545014721
0.94,-0.99,-0.08031237437618374
0.95,-0.99,-0.048443947051791156
0.96,-0.99,-0.016384333600319365
0.97,-0.99,0.015739941330582846
0.98,-0.99,0.04780209790394847
0.99,-0.99,0.07967560143558843
1.0,-0.99,0.11123466176868207

-1.0,-0.98,0.14049344133019998
-0.99,-0.98,0.17291298856895726
-0.98,-0.98,0.20465012723826315
-0.97,-0.98,0.2355796053511095
-0.96,-0.98,0.26557935838771907
-0.95,-0.98,0.2945309910284396
-0.94,-0.98,0.3223202444059816
-0.9299999999999999,-0.98,0.3488374470329657
-0.92,-0.98,0.3739779476251811
-0.91,-0.98,0.3976425281123921
-0.9,-0.98,0.4197377952067343
-0.89,-0.98,0.44017654898335334
-0.88,-0.98,0.4588781270186718
-0.87,-0.98,0.47576872272812276
-0.86,-0.98,0.4907816766470196
-0.85,-0.98,0.5038577395050106
-0.84,-0.98,0.5149453060558805
-0.83,-0.98,0.5240006187398804
-0.8200000000000001,-0.98,0.530987940374825
-0.81,-0.98,0.5358796951944256
-0.8,-0.98,0.5386565776772382
-0.79,-0.98,0.5393076287367412
-0.78,-0.98,0.5378302789718394
-0.77,-0.98,0.5342303588071173
-0.76,-0.98,0.5285220754828186
-0.75,-0.98,0.5207279569853579
-0.74,-0.98,0.5108787631396501
-0.73,-0.98,0.49901336421413567
-0.72,-0.98,0.4851785875175892
-0.71,-0.98,0.4694290325931223
-0.7,-0.98,0.4518268557387357
-0.69,-0.98,0.43244152470480374
-0.6799999999999999,-0.98,0.4113495445366021
-0.6699999999999999,-0.98,0.38863415564384535
-0.6599999999999999,-0.98,0.3643850052888191
-0.6499999999999999,-0.98,0.33869779378959197
-0.64,-0.98,0.31167389683458024
-0.63,-0.98,0.2834199653990218
-0.62,-0.98,0.25404750484229904
-0.61,-0.98,0.22367243484722862
-0.6,-0.98,0.1924146319380314
-0.59,-0.98,0.16039745638245834
-0.5800000000000001,-0.98,0.12774726534517133
-0.5700000000000001,-0.98,0.09459291421374094
-0.56,-0.98,0.061065248065300594
-0.55,-0.98,0.02729658528080476
-0.54,-0.98,-0.006579804655170898
-0.53,-0.98,-0.040430227108199324
-0.52,-0.98,-0.07412108992564559
-0.51,-0.98,-0.10751943066386026
-0.5,-0.98,-0.14049344133019984
-0.49,-0.98,-0.17291298856895712
-0.48,-0.98,-0.20465012723826326
-0.47,-0.98,-0.23557960535110956
-0.45999999999999996,-0.98,-0.26557935838771907
-0.44999999999999996,-0.98,-0.2945309910284395
-0.43999999999999995,-0.98,-0.3223202444059816
-0.42999999999999994,-0.98,-0.3488374470329659
-0.42000000000000004,-0.98,-0.3739779476251811
-0.41000000000000003,-0.98,-0.39764252811239187
-0.4,-0.98,-0.41973779520673404
-0.39,-0.98,-0.440176548983353
-0.38,-0.98,-0.45887812701867203
-0.37,-0.98,-0.47576872272812265
-0.36,-0.98,-0.4907816766470192
-0.35,-0.98,-0.5038577395050101
-0.33999999999999997,-0.98,-0.5149453060558804
-0.32999999999999996,-0.98,-0.5240006187398804
-0.31999999999999995,-0.98,-0.5309879403748252
-0.30999999999999994,-0.98,-0.5358796951944256
-0.29999999999999993,-0.98,-0.5386565776772385
-0.29000000000000004,-0.98,-0.5393076287367417
-0.28,-0.98,-0.5378302789718397
-0.27,-0.98,-0.5342303588071173
-0.26,-0.98,-0.5285220754828188
-0.25,-0.98,-0.5207279569853578
-0.24,-0.98,-0.5108787631396501
-0.22999999999999998,-0.98,-0.499013364214136
-0.21999999999999997,-0.98,-0.4851785875175888
-0.20999999999999996,-0.98,-0.4694290325931223
-0.19999999999999996,-0.98,-0.45182685573873604
-0.18999999999999995,-0.98,-0.4324415247048041
-0.17999999999999994,-0.98,-0.4113495445366021
-0.16999999999999993,-0.98,-0.3886341556438452
-0.16000000000000003,-0.98,-0.3643850052888192
-0.15000000000000002,-0.98,-0.33869779378959186
-0.14,-0.98,-0.31167389683458024
-0.13,-0.98,-0.2834199653990219
-0.12,-0.98,-0.25404750484229915
-0.10999999999999999,-0.98,-0.2236724348472286
-0.09999999999999998,-0.98,-0.1924146319380314
-0.08999999999999997,-0.98,-0.1603974563824584
-0.07999999999999996,-0.98,-0.12774726534517128
-0.06999999999999995,-0.98,-0.09459291421374084
-0.05999999999999994,-0.98,-0.06106524806530068
-0.04999999999999993,-0.98,-0.02729658528080468
-0.040000000000000036,-0.98,0.006579804655170884
-0.030000000000000027,-0.98,0.04043022710819933
-0.020000000000000018,-0.98,0.0741210899256455
-0.010000000000000009,-0.98,0.1075194306638601
0.0,-0.98,0.1404934413301999
0.010000000000000009,-0.98,0.17291298856895734
0.020000000000000018,-0.98,0.20465012723826337
0.030000000000000027,-0.98,0.23557960535110942
0.040000000000000036,-0.98,0.26557935838771884
0.050000000000000044,-0.98,0.2945309910284397
0.06000000000000005,-0.98,0.32232024440598156
0.07000000000000006,-0.98,0.3488374470329659
0.08000000000000007,-0.98,0.3739779476251809
0.09000000000000008,-0.98,0.3976425281123921
0.10000000000000009,-0.98,0.419737795206734
0.1100000000000001,-0.98,0.44017654898335334
0.1200000000000001,-0.98,0.4588781270186719
0.13000000000000012,-0.98,0.4757687227281226
0.14000000000000012,-0.98,0.4907816766470193
0.15000000000000013,-0.98,0.5038577395050106
0.15999999999999992,-0.98,0.5149453060558806
0.16999999999999993,-0.98,0.5240006187398806
0.17999999999999994,-0.98,0.5309879403748254
0.18999999999999995,-0.98,0.5358796951944256
0.19999999999999996,-0.98,0.5386565776772383
0.20999999999999996,-0.98,0.5393076287367413
0.21999999999999997,-0.98,0.5378302789718392
0.22999999999999998,-0.98,0.5342303588071172
0.24,-0.98,0.5285220754828188
0.25,-0.98,0.5207279569853581
0.26,-0.98,0.51087876313965
0.27,-0.98,0.4990133642141359
0.28,-0.98,0.4851785875175889
0.29000000000000004,-0.98,0.46942903259312224
0.30000000000000004,-0.98,0.45182685573873566
0.31000000000000005,-0.98,0.4324415247048036
0.32000000000000006,-0.98,0.4113495445366022
0.33000000000000007,-0.98,0.3886341556438452
0.3400000000000001,-0.98,0.36438500528881906
0.3500000000000001,-0.98,0.3386977937895921
0.3600000000000001,-0.98,0.3116738968345804
0.3700000000000001,-0.98,0.2834199653990219
0.3800000000000001,-0.98,0.25404750484229904
0.3900000000000001,-0.98,0.22367243484722868
0.40000000000000013,-0.98,0.19241463193803143
0.4099999999999999,-0.98,0.16039745638245845
0.41999999999999993,-0.98,0.12774726534517136
0.42999999999999994,-0.98,0.09459291421374111
0.43999999999999995,-0.98,0.06106524806530072
0.44999999999999996,-0.98,0.027296585280804787
0.45999999999999996,-0.98,-0.006579804655170765
0.47,-0.98,-0.040430227108199185
0.48,-0.98,-0.07412108992564549
0.49,-0.98,-0.10751943066386008
0.5,-0.98,-0.14049344133019986
0.51,-0.98,-0.17291298856895732
0.52,-0.98,-0.2046501272382631
0.53,-0.98,-0.23557960535110933
0.54,-0.98,-0.26557935838771896
0.55,-0.98,-0.2945309910284396
0.56,-0.98,-0.3223202444059815
0.5700000000000001,-0.98,-0.3488374470329656
0.5800000000000001,-0.98,-0.37397794762518094
0.5900000000000001,-0.98,-0.3976425281123921
0.6000000000000001,-0.98,-0.4197377952067338
0.6100000000000001,-0.98,-0.4401765489833534
0.6200000000000001,-0.98,-0.4588781270186718
0.6300000000000001,-0.98,-0.47576872272812254
0.6400000000000001,-0.98,-0.49078167664701927
0.6500000000000001,-0.98,-0.5038577395050102
0.6600000000000001,-0.98,-0.5149453060558804
0.6699999999999999,-0.98,-0.5240006187398804
0.6799999999999999,-0.98,-0.5309879403748253
0.69,-0.98,-0.5358796951944251
0.7,-0.98,-0.5386565776772384
0.71,-0.98,-0.5393076287367415
0.72,-0.98,-0.5378302789718394
0.73,-0.98,-0.5342303588071171
0.74,-0.98,-0.5285220754828186
0.75,-0.98,-0.520727956985358
0.76,-0.98,-0.5108787631396501
0.77,-0.98,-0.4990133642141358
0.78,-0.98,-0.4851785875175889
0.79,-0.98,-0.4694290325931223
0.8,-0.98,-0.4518268557387357
0.81,-0.98,-0.43244152470480357
0.8200000000000001,-0.98,-0.41134954453660205
0.8300000000000001,-0.98,-0.38863415564384535
0.8400000000000001,-0.98,-0.36438500528881945
0.8500000000000001,-0.98,-0.3386977937895919
0.8600000000000001,-0.98,-0.3116738968345806
0.8700000000000001,-0.98,-0.2834199653990218
0.8800000000000001,-0.98,-0.2540475048422988
0.8900000000000001,-0.98,-0.2236724348472286
0.9000000000000001,-0.98,-0.19241463193803143
0.9100000000000001,-0.98,-0.16039745638245845
0.9199999999999999,-0.98,-0.12774726534517136
0.9299999999999999,-0.98,-0.09459291421374094
0.94,-0.98,-0.061065248065300656
0.95,-0.98,-0.027296585280804787
0.96,-0.98,0.00657980465517078
0.97,-0.98,0.04043022710819926
0.98,-0.98,0.07412108992564548
0.99,-0.98,0.10751943066386019
1.0,-0.98,0.14049344133019998

-1.0,-0.97,0.1691977574641354
-0.99,-0.97,0.20278883885840546
-0.98,-0.97,0.23557960535110953
-0.97,-0.97,0.26744064676757673
-0.96,-0.97,0.2982462221332615
-0.95,-0.97,0.3278747559159246
-0.94,-0.97,0.356209317828715
-0.9299999999999999,-0.97,0.3831380843005932
-0.92,-0.97,0.4085547797928776
-0.91,-0.97,0.43235909622024377
-0.9,-0.97,0.4544570888209105
-0.89,-0.97,0.4747615469136959
-0.88,-0.97,0.4931923380787325
-0.87,-0.97,0.5096767244035187
-0.86,-0.97,0.5241496495462303
-0.85,-0.97,0.5365539954833802
-0.84,-0.97,0.5468408079285607
-0.83,-0.97,0.554969489532648
-0.8200000000000001,-0.97,0.5609079601029934
-0.81,-0.97,0.5646327832092828
-0.8,-0.97,0.5661292586764275
-0.79,-0.97,0.5653914805994324
-0.78,-0.97,0.5624223606513081
-0.77,-0.97,0.5572336165920291
-0.76,-0.97,0.5498457260238852
-0.75,-0.97,0.5402878455757424
-0.74,-0.97,0.5285976958351493
-0.73,-0.97,0.5148214124824115
-0.72,-0.97,0.4990133642141359
-0.71,-0.97,0.48123593817482774
-0.7,-0.97,0.46155929374333077
-0.69,-0.97,0.4400610856458125
-0.6799999999999999,-0.97,0.4168261574880363
-0.6699999999999999,-0.97,0.3919462069164122
-0.6599999999999999,-0.97,0.3655194237292783
-0.6499999999999999,-0.97,0.33765010236662507
-0.64,-0.97,0.30844823030758955
-0.63,-0.97,0.27802905400012223
-0.62,-0.97,0.246512624035909
-0.61,-0.97,0.2140233213655311
-0.6,-0.97,0.1806893664236782
-0.59,-0.97,0.14664231310167047
-0.5800000000000001,-0.97,0.11201652956435068
-0.5700000000000001,-0.97,0.07694866796032472
-0.56,-0.97,0.041577125118361966
-0.55,-0.97,0.006041496358338597
-0.54,-0.97,-0.029517975427713897
-0.53,-0.97,-0.06496095325023354
-0.52,-0.97,-0.10014755986811104
-0.51,-0.97,-0.13493892982025685
-0.5,-0.97,-0.1691977574641353
-0.49,-0.97,-0.20278883885840554
-0.48,-0.97,-0.23557960535110947
-0.47,-0.97,-0.2674406467675768
-0.45999999999999996,-0.97,-0.29824622213326146
-0.44999999999999996,-0.97,-0.3278747559159245
-0.43999999999999995,-0.97,-0.35620931782871507
-0.42999999999999994,-0.97,-0.38313808430059315
-0.42000000000000004,-0.97,-0.40855477979287735
-0.41000000000000003,-0.97,-0.4323590962202435
-0.4,-0.97,-0.4544570888209103
-0.39,-0.97,-0.4747615469136962
-0.38,-0.97,-0.4931923380787325
-0.37,-0.97,-0.5096767244035184
-0.36,-0.97,-0.5241496495462299
-0.35,-0.97,-0.5365539954833802
-0.33999999999999997,-0.97,-0.5468408079285607
-0.32999999999999996,-0.97,-0.5549694895326485
-0.31999999999999995,-0.97,-0.5609079601029933
-0.30999999999999994,-0.97,-0.5646327832092833
-0.29999999999999993,-0.97,-0.566129258676428
-0.29000000000000004,-0.97,-0.5653914805994327
-0.28,-0.97,-0.5624223606513081
-0.27,-0.97,-0.5572336165920293
-0.26,-0.97,-0.5498457260238849
-0.25,-0.97,-0.540287845575742
-0.24,-0.97,-0.5285976958351497
-0.22999999999999998,-0.97,-0.5148214124824111
-0.21999999999999997,-0.97,-0.49901336421413583
-0.20999999999999996,-0.97,-0.4812359381748281
-0.19999999999999996,-0.97,-0.46155929374333116
-0.18999999999999995,-0.97,-0.44006108564581237
-0.17999999999999994,-0.97,-0.4168261574880362
-0.16999999999999993,-0.97,-0.3919462069164122
-0.16000000000000003,-0.97,-0.36551942372927826
-0.15000000000000002,-0.97,-0.33765010236662507
-0.14,-0.97,-0.30844823030758967
-0.13,-0.97,-0.27802905400012234
-0.12,-0.97,-0.246512624035909
-0.10999999999999999,-0.97,-0.2140233213655311
-0.09999999999999998,-0.97,-0.18068936642367817
-0.08999999999999997,-0.97,-0.14664231310167042
-0.07999999999999996,-0.97,-0.11201652956435054
-0.06999999999999995,-0.97,-0.07694866796032482
-0.05999999999999994,-0.97,-0.04157712511836188
-0.04999999999999993,-0.97,-0.006041496358338616
-0.040000000000000036,-0.97,0.029517975427713894
-0.030000000000000027,-0.97,0.06496095325023347
-0.020000000000000018,-0.97,0.10014755986811091
-0.010000000000000009,-0.97,0.13493892982025696
0.0,-0.97,0.16919775746413546
0.010000000000000009,-0.97,0.2027888388584057
0.020000000000000018,-0.97,0.23557960535110944
0.030000000000000027,-0.97,0.2674406467675766
0.040000000000000036,-0.97,0.2982462221332617
0.050000000000000044,-0.97,0.3278747559159245
0.06000000000000005,-0.97,0.3562093178287151
0.07000000000000006,-0.97,0.38313808430059293
0.08000000000000007,-0.97,0.4085547797928776
0.09000000000000008,-0.97,0.43235909622024354
0.10000000000000009,-0.97,0.4544570888209106
0.1100000000000001,-0.97,0.47476154691369604
0.1200000000000001,-0.97,0.4931923380787323
0.13000000000000012,-0.97,0.5096767244035185
0.14000000000000012,-0.97,0.5241496495462306
0.15000000000000013,-0.97,0.5365539954833802
0.15999999999999992,-0.97,0.5468408079285609
0.16999999999999993,-0.97,0.5549694895326486
0.17999999999999994,-0.97,0.5609079601029934
0.18999999999999995,-0.97,0.5646327832092832
0.19999999999999996,-0.97,0.5661292586764276
0.20999999999999996,-0.97,0.5653914805994322
0.21999999999999997,-0.97,0.5624223606513081
0.22999999999999998,-0.97,0.5572336165920291
0.24,-0.97,0.5498457260238853
0.25,-0.97,0.540287845575742
0.26,-0.97,0.5285976958351495
0.27,-0.97,0.5148214124824113
0.28,-0.97,0.4990133642141357
0.29000000000000004,-0.97,0.4812359381748277
0.30000000000000004,-0.97,0.4615592937433307
0.31000000000000005,-0.97,0.4400610856458124
0.32000000000000006,-0.97,0.4168261574880361
0.33000000000000007,-0.97,0.39194620691641213
0.3400000000000001,-0.97,0.36551942372927837
0.3500000000000001,-0.97,0.3376501023666253
0.3600000000000001,-0.97,0.3084482303075897
0.3700000000000001,-0.97,0.27802905400012223
0.3800000000000001,-0.97,0.24651262403590907
0.3900000000000001,-0.97,0.2140233213655311
0.40000000000000013,-0.97,0.18068936642367825
0.4099999999999999,-0.97,0.14664231310167047
0.41999999999999993,-0.97,0.11201652956435085
0.42999999999999994,-0.97,0.07694866796032487
0.43999999999999995,-0.97,0.04157712511836201
0.44999999999999996,-0.97,0.006041496358338746
0.45999999999999996,-0.97,-0.029517975427713762
0.47,-0.97,-0.06496095325023342
0.48,-0.97,-0.1001475598681109
0.49,-0.97,-0.1349389298202569
0.5,-0.97,-0.16919775746413546
0.51,-0.97,-0.20278883885840537
0.52,-0.97,-0.23557960535110933
0.53,-0.97,-0.26744064676757673
0.54,-0.97,-0.2982462221332615
0.55,-0.97,-0.32787475591592447
0.56,-0.97,-0.35620931782871473
0.5700000000000001,-0.97,-0.38313808430059304
0.5800000000000001,-0.97,-0.4085547797928775
0.5900000000000001,-0.97,-0.4323590962202434
0.6000000000000001,-0.97,-0.4544570888209106
0.6100000000000001,-0.97,-0.47476154691369593
0.6200000000000001,-0.97,-0.4931923380787321
0.6300000000000001,-0.97,-0.5096767244035183