TITLE = "Solution" 
VARIABLES = "x", "y", "sol" 
ZONE STRANDID=1, SOLUTIONTIME= 1.7499999999999847, I= 201, J =201, DATAPACKING=POINT 
-1.0,-1.0,0.7504553686165112
-0.99,-1.0,0.748974516371769
-0.98,-1.0,0.744537803884816
-0.97,-1.0,0.7371627408328972
-0.96,-1.0,0.7268784332205322
-0.95,-1.0,0.7137254685114143
-0.94,-1.0,0.6977557554482317
-0.9299999999999999,-1.0,0.6790323191925776
-0.92,-1.0,0.6576290525934285
-0.91,-1.0,0.6336304245658286
-0.9,-1.0,0.6071311467306728
-0.89,-1.0,0.5782357996312082
-0.88,-1.0,0.5470584200014073
-0.87,-1.0,0.5137220507150796
-0.86,-1.0,0.4783582551918599
-0.85,-1.0,0.4411065981764967
-0.84,-1.0,0.4021140949405665
-0.83,-1.0,0.3615346310803612
-0.8200000000000001,-1.0,0.3195283552007433
-0.81,-1.0,0.2762610468817679
-0.8,-1.0,0.23190346242241736
-0.79,-1.0,0.18663066094349937
-0.78,-1.0,0.1406213135092762
-0.77,-1.0,0.09405699799439911
-0.76,-1.0,0.047121482478992956
-0.75,-1.0,-1.0928757898653885e-16
-0.74,-1.0,-0.04712148247899327
-0.73,-1.0,-0.09405699799439932
-0.72,-1.0,-0.14062131350927656
-0.71,-1.0,-0.18663066094349973
-0.7,-1.0,-0.2319034624224175
-0.69,-1.0,-0.2762610468817682
-0.6799999999999999,-1.0,-0.31952835520074374
-0.6699999999999999,-1.0,-0.3615346310803612
-0.6599999999999999,-1.0,-0.40211409494056666
-0.6499999999999999,-1.0,-0.44110659817649706
-0.64,-1.0,-0.4783582551918599
-0.63,-1.0,-0.5137220507150797
-0.62,-1.0,-0.5470584200014069
-0.61,-1.0,-0.5782357996312084
-0.6,-1.0,-0.6071311467306728
-0.59,-1.0,-0.6336304245658284
-0.5800000000000001,-1.0,-0.6576290525934283
-0.5700000000000001,-1.0,-0.679032319192578
-0.56,-1.0,-0.6977557554482321
-0.55,-1.0,-0.7137254685114143
-0.54,-1.0,-0.7268784332205324
-0.53,-1.0,-0.7371627408328971
-0.52,-1.0,-0.744537803884816
-0.51,-1.0,-0.7489745163717687
-0.5,-1.0,-0.750455368616511
-0.49,-1.0,-0.7489745163717692
-0.48,-1.0,-0.7445378038848165
-0.47,-1.0,-0.7371627408328971
-0.45999999999999996,-1.0,-0.726878433220532
-0.44999999999999996,-1.0,-0.7137254685114136
-0.43999999999999995,-1.0,-0.6977557554482317
-0.42999999999999994,-1.0,-0.6790323191925777
-0.42000000000000004,-1.0,-0.6576290525934282
-0.41000000000000003,-1.0,-0.6336304245658287
-0.4,-1.0,-0.6071311467306726
-0.39,-1.0,-0.5782357996312079
-0.38,-1.0,-0.5470584200014075
-0.37,-1.0,-0.5137220507150795
-0.36,-1.0,-0.47835825519185965
-0.35,-1.0,-0.44110659817649644
-0.33999999999999997,-1.0,-0.40211409494056627
-0.32999999999999996,-1.0,-0.361534631080361
-0.31999999999999995,-1.0,-0.31952835520074324
-0.30999999999999994,-1.0,-0.27626104688176806
-0.29999999999999993,-1.0,-0.23190346242241733
-0.29000000000000004,-1.0,-0.1866306609434994
-0.28,-1.0,-0.1406213135092762
-0.27,-1.0,-0.09405699799439897
-0.26,-1.0,-0.047121482478992865
-0.25,-1.0,1.231653667943533e-16
-0.24,-1.0,0.04712148247899319
-0.22999999999999998,-1.0,0.09405699799439944
-0.21999999999999997,-1.0,0.14062131350927654
-0.20999999999999996,-1.0,0.18663066094349995
-0.19999999999999996,-1.0,0.23190346242241758
-0.18999999999999995,-1.0,0.2762610468817685
-0.17999999999999994,-1.0,0.3195283552007435
-0.16999999999999993,-1.0,0.36153463108036143
-0.16000000000000003,-1.0,0.4021140949405666
-0.15000000000000002,-1.0,0.4411065981764971
-0.14,-1.0,0.47835825519186026
-0.13,-1.0,0.5137220507150805
-0.12,-1.0,0.5470584200014076
-0.10999999999999999,-1.0,0.5782357996312084
-0.09999999999999998,-1.0,0.607131146730673
-0.08999999999999997,-1.0,0.6336304245658289
-0.07999999999999996,-1.0,0.6576290525934285
-0.06999999999999995,-1.0,0.6790323191925778
-0.05999999999999994,-1.0,0.6977557554482314
-0.04999999999999993,-1.0,0.7137254685114142
-0.040000000000000036,-1.0,0.7268784332205326
-0.030000000000000027,-1.0,0.737162740832897
-0.020000000000000018,-1.0,0.7445378038848158
-0.010000000000000009,-1.0,0.7489745163717689
0.0,-1.0,0.7504553686165109
0.010000000000000009,-1.0,0.7489745163717685
0.020000000000000018,-1.0,0.744537803884816
0.030000000000000027,-1.0,0.7371627408328967
0.040000000000000036,-1.0,0.726878433220532
0.050000000000000044,-1.0,0.7137254685114138
0.06000000000000005,-1.0,0.6977557554482317
0.07000000000000006,-1.0,0.6790323191925778
0.08000000000000007,-1.0,0.6576290525934284
0.09000000000000008,-1.0,0.6336304245658289
0.10000000000000009,-1.0,0.6071311467306728
0.1100000000000001,-1.0,0.578235799631208
0.1200000000000001,-1.0,0.547058420001407
0.13000000000000012,-1.0,0.5137220507150795
0.14000000000000012,-1.0,0.4783582551918599
0.15000000000000013,-1.0,0.441106598176497
0.15999999999999992,-1.0,0.40211409494056644
0.16999999999999993,-1.0,0.36153463108036116
0.17999999999999994,-1.0,0.31952835520074363
0.18999999999999995,-1.0,0.2762610468817682
0.19999999999999996,-1.0,0.23190346242241747
0.20999999999999996,-1.0,0.18663066094349964
0.21999999999999997,-1.0,0.1406213135092763
0.22999999999999998,-1.0,0.09405699799439926
0.24,-1.0,0.04712148247899313
0.25,-1.0,-5.551115123125783e-17
0.26,-1.0,-0.04712148247899316
0.27,-1.0,-0.09405699799439927
0.28,-1.0,-0.14062131350927654
0.29000000000000004,-1.0,-0.18663066094349967
0.30000000000000004,-1.0,-0.23190346242241755
0.31000000000000005,-1.0,-0.27626104688176856
0.32000000000000006,-1.0,-0.3195283552007435
0.33000000000000007,-1.0,-0.36153463108036143
0.3400000000000001,-1.0,-0.40211409494056677
0.3500000000000001,-1.0,-0.4411065981764969
0.3600000000000001,-1.0,-0.4783582551918599
0.3700000000000001,-1.0,-0.5137220507150799
0.3800000000000001,-1.0,-0.5470584200014077
0.3900000000000001,-1.0,-0.5782357996312087
0.40000000000000013,-1.0,-0.607131146730673
0.4099999999999999,-1.0,-0.633630424565829
0.41999999999999993,-1.0,-0.6576290525934283
0.42999999999999994,-1.0,-0.679032319192578
0.43999999999999995,-1.0,-0.697755755448232
0.44999999999999996,-1.0,-0.7137254685114142
0.45999999999999996,-1.0,-0.726878433220532
0.47,-1.0,-0.7371627408328971
0.48,-1.0,-0.7445378038848162
0.49,-1.0,-0.7489745163717687
0.5,-1.0,-0.7504553686165106
0.51,-1.0,-0.7489745163717687
0.52,-1.0,-0.744537803884816
0.53,-1.0,-0.7371627408328968
0.54,-1.0,-0.7268784332205322
0.55,-1.0,-0.7137254685114142
0.56,-1.0,-0.6977557554482319
0.5700000000000001,-1.0,-0.6790323191925774
0.5800000000000001,-1.0,-0.6576290525934287
0.5900000000000001,-1.0,-0.6336304245658289
0.6000000000000001,-1.0,-0.6071311467306726
0.6100000000000001,-1.0,-0.578235799631208
0.6200000000000001,-1.0,-0.5470584200014075
0.6300000000000001,-1.0,-0.5137220507150797
0.6400000000000001,-1.0,-0.47835825519186004
0.6500000000000001,-1.0,-0.441106598176497
0.6600000000000001,-1.0,-0.40211409494056627
0.6699999999999999,-1.0,-0.36153463108036116
0.6799999999999999,-1.0,-0.3195283552007435
0.69,-1.0,-0.2762610468817681
0.7,-1.0,-0.2319034624224173
0.71,-1.0,-0.18663066094349945
0.72,-1.0,-0.1406213135092762
0.73,-1.0,-0.09405699799439915
0.74,-1.0,-0.047121482478993004
0.75,-1.0,1.3010426069826053e-16
0.76,-1.0,0.04712148247899321
0.77,-1.0,0.09405699799439926
0.78,-1.0,0.14062131350927648
0.79,-1.0,0.18663066094349967
0.8,-1.0,0.23190346242241772
0.81,-1.0,0.2762610468817683
0.8200000000000001,-1.0,0.3195283552007435
0.8300000000000001,-1.0,0.3615346310803613
0.8400000000000001,-1.0,0.4021140949405666
0.8500000000000001,-1.0,0.44110659817649717
0.8600000000000001,-1.0,0.4783582551918603
0.8700000000000001,-1.0,0.5137220507150799
0.8800000000000001,-1.0,0.5470584200014074
0.8900000000000001,-1.0,0.5782357996312083
0.9000000000000001,-1.0,0.6071311467306729
0.9100000000000001,-1.0,0.6336304245658285
0.9199999999999999,-1.0,0.6576290525934284
0.9299999999999999,-1.0,0.679032319192578
0.94,-1.0,0.6977557554482319
0.95,-1.0,0.713725468511414
0.96,-1.0,0.726878433220532
0.97,-1.0,0.7371627408328977
0.98,-1.0,0.7445378038848162
0.99,-1.0,0.748974516371769
1.0,-1.0,0.7504553686165112

-1.0,-0.99,0.748974516371769
-0.99,-0.99,0.7465127192737495
-0.98,-0.99,0.7411047775219777
-0.97,-0.99,0.7327720337918928
-0.96,-0.99,0.7215473736161296
-0.95,-0.99,0.7074750956003423
-0.94,-0.99,0.6906107365968468
-0.9299999999999999,-0.99,0.6710208525260379
-0.92,-0.99,0.6487827557105756
-0.91,-0.99,0.6239842097589703
-0.9,-0.99,0.5967230832027157
-0.89,-0.99,0.5671069632539048
-0.88,-0.99,0.5352527312076576
-0.87,-0.99,0.5012861011650465
-0.86,-0.99,0.4653411238969719
-0.85,-0.99,0.4275596578070135
-0.84,-0.99,0.3880908090811179
-0.83,-0.99,0.3470903432336043
-0.8200000000000001,-0.99,0.30472007037184223
-0.81,-0.99,0.2611472066056808
-0.8,-0.99,0.21654371412185636
-0.79,-0.99,0.17108562252780585
-0.78,-0.99,0.12495233414322425
-0.77,-0.99,0.07832591598107061
-0.76,-0.99,0.03139038121224696
-0.75,-0.99,-0.015669037050320432
-0.74,-0.99,-0.06266661678215221
-0.73,-0.99,-0.1094168800071989
-0.72,-0.99,-0.15573532479467458
-0.71,-0.99,-0.20143915340388782
-0.7,-0.99,-0.24634799370341123
-0.69,-0.99,-0.2902846110174803
-0.6799999999999999,-0.99,-0.33307560759028676
-0.6699999999999999,-0.99,-0.3745521069077056
-0.6599999999999999,-0.99,-0.41455042017574034
-0.6499999999999999,-0.99,-0.452912692325413
-0.64,-0.99,-0.48948752499460435
-0.63,-0.99,-0.5241305740282205
-0.62,-0.99,-0.5567051191386303
-0.61,-0.99,-0.5870826034781753
-0.6,-0.99,-0.6151431409943208
-0.59,-0.99,-0.6407759895651308
-0.5800000000000001,-0.99,-0.663879988047831
-0.5700000000000001,-0.99,-0.6843639555156226
-0.56,-0.99,-0.702147051107145
-0.55,-0.99,-0.7171590930684217
-0.54,-0.99,-0.7293408357281818
-0.53,-0.99,-0.7386442033134557
-0.52,-0.99,-0.7450324796826882
-0.51,-0.99,-0.7484804532275773
-0.5,-0.99,-0.7489745163717692
-0.49,-0.99,-0.7465127192737502
-0.48,-0.99,-0.7411047775219776
-0.47,-0.99,-0.7327720337918925
-0.45999999999999996,-0.99,-0.721547373616129
-0.44999999999999996,-0.99,-0.7074750956003424
-0.43999999999999995,-0.99,-0.6906107365968472
-0.42999999999999994,-0.99,-0.6710208525260377
-0.42000000000000004,-0.99,-0.6487827557105756
-0.41000000000000003,-0.99,-0.6239842097589701
-0.4,-0.99,-0.5967230832027157
-0.39,-0.99,-0.567106963253905
-0.38,-0.99,-0.5352527312076576
-0.37,-0.99,-0.501286101165046
-0.36,-0.99,-0.46534112389697163
-0.35,-0.99,-0.4275596578070132
-0.33999999999999997,-0.99,-0.3880908090811177
-0.32999999999999996,-0.99,-0.3470903432336044
-0.31999999999999995,-0.99,-0.30472007037184234
-0.30999999999999994,-0.99,-0.2611472066056807
-0.29999999999999993,-0.99,-0.21654371412185638
-0.29000000000000004,-0.99,-0.1710856225278059
-0.28,-0.99,-0.12495233414322413
-0.27,-0.99,-0.07832591598107051
-0.26,-0.99,-0.031390381212246965
-0.25,-0.99,0.015669037050320363
-0.24,-0.99,0.06266661678215235
-0.22999999999999998,-0.99,0.10941688000719892
-0.21999999999999997,-0.99,0.15573532479467478
-0.20999999999999996,-0.99,0.20143915340388793
-0.19999999999999996,-0.99,0.24634799370341148
-0.18999999999999995,-0.99,0.2902846110174801
-0.17999999999999994,-0.99,0.3330756075902871
-0.16999999999999993,-0.99,0.3745521069077055
-0.16000000000000003,-0.99,0.41455042017574045
-0.15000000000000002,-0.99,0.4529126923254133
-0.14,-0.99,0.4894875249946052
-0.13,-0.99,0.5241305740282212
-0.12,-0.99,0.5567051191386305
-0.10999999999999999,-0.99,0.5870826034781755
-0.09999999999999998,-0.99,0.6151431409943211
-0.08999999999999997,-0.99,0.640775989565131
-0.07999999999999996,-0.99,0.663879988047831
-0.06999999999999995,-0.99,0.6843639555156221
-0.05999999999999994,-0.99,0.7021470511071446
-0.04999999999999993,-0.99,0.7171590930684221
-0.040000000000000036,-0.99,0.7293408357281818
-0.030000000000000027,-0.99,0.7386442033134554
-0.020000000000000018,-0.99,0.7450324796826886
-0.010000000000000009,-0.99,0.7484804532275771
0.0,-0.99,0.7489745163717685
0.010000000000000009,-0.99,0.7465127192737497
0.020000000000000018,-0.99,0.741104777521977
0.030000000000000027,-0.99,0.7327720337918926
0.040000000000000036,-0.99,0.7215473736161293
0.050000000000000044,-0.99,0.7074750956003422
0.06000000000000005,-0.99,0.6906107365968472
0.07000000000000006,-0.99,0.6710208525260378
0.08000000000000007,-0.99,0.6487827557105758
0.09000000000000008,-0.99,0.6239842097589702
0.10000000000000009,-0.99,0.5967230832027155
0.1100000000000001,-0.99,0.5671069632539045
0.1200000000000001,-0.99,0.5352527312076575
0.13000000000000012,-0.99,0.5012861011650463
0.14000000000000012,-0.99,0.46534112389697213
0.15000000000000013,-0.99,0.42755965780701344
0.15999999999999992,-0.99,0.3880908090811178
0.16999999999999993,-0.99,0.3470903432336046
0.17999999999999994,-0.99,0.30472007037184257
0.18999999999999995,-0.99,0.2611472066056809
0.19999999999999996,-0.99,0.2165437141218567
0.20999999999999996,-0.99,0.17108562252780596
0.21999999999999997,-0.99,0.12495233414322442
0.22999999999999998,-0.99,0.07832591598107078
0.24,-0.99,0.03139038121224702
0.25,-0.99,-0.01566903705032032
0.26,-0.99,-0.06266661678215218
0.27,-0.99,-0.10941688000719885
0.28,-0.99,-0.1557353247946745
0.29000000000000004,-0.99,-0.20143915340388788
0.30000000000000004,-0.99,-0.2463479937034115
0.31000000000000005,-0.99,-0.29028461101748015
0.32000000000000006,-0.99,-0.3330756075902871
0.33000000000000007,-0.99,-0.3745521069077057
0.3400000000000001,-0.99,-0.4145504201757403
0.3500000000000001,-0.99,-0.4529126923254131
0.3600000000000001,-0.99,-0.4894875249946049
0.3700000000000001,-0.99,-0.5241305740282212
0.3800000000000001,-0.99,-0.5567051191386307
0.3900000000000001,-0.99,-0.5870826034781755
0.40000000000000013,-0.99,-0.6151431409943212
0.4099999999999999,-0.99,-0.6407759895651308
0.41999999999999993,-0.99,-0.6638799880478311
0.42999999999999994,-0.99,-0.6843639555156226
0.43999999999999995,-0.99,-0.7021470511071446
0.44999999999999996,-0.99,-0.7171590930684215
0.45999999999999996,-0.99,-0.7293408357281816
0.47,-0.99,-0.7386442033134558
0.48,-0.99,-0.7450324796826883
0.49,-0.99,-0.7484804532275768
0.5,-0.99,-0.7489745163717687
0.51,-0.99,-0.7465127192737497
0.52,-0.99,-0.7411047775219772
0.53,-0.99,-0.7327720337918928
0.54,-0.99,-0.7215473736161295
0.55,-0.99,-0.7074750956003424
0.56,-0.99,-0.6906107365968468
0.5700000000000001,-0.99,-0.6710208525260382
0.5800000000000001,-0.99,-0.6487827557105758
0.5900000000000001,-0.99,-0.6239842097589702
0.6000000000000001,-0.99,-0.5967230832027155
0.6100000000000001,-0.99,-0.567106963253905
0.6200000000000001,-0.99,-0.5352527312076577
0.6300000000000001,-0.99,-0.5012861011650466
0.6400000000000001,-0.99,-0.46534112389697224
0.6500000000000001,-0.99,-0.4275596578070132
0.6600000000000001,-0.99,-0.3880908090811179
0.6699999999999999,-0.99,-0.3470903432336046
0.6799999999999999,-0.99,-0.30472007037184246
0.69,-0.99,-0.2611472066056807
0.7,-0.99,-0.21654371412185644
0.71,-0.99,-0.1710856225278059
0.72,-0.99,-0.12495233414322429
0.73,-0.99,-0.07832591598107064
0.74,-0.99,-0.031390381212246965
0.75,-0.99,0.015669037050320377
0.76,-0.99,0.06266661678215216
0.77,-0.99,0.10941688000719883
0.78,-0.99,0.15573532479467453
0.79,-0.99,0.20143915340388796
0.8,-0.99,0.24634799370341132
0.81,-0.99,0.29028461101748004
0.8200000000000001,-0.99,0.333075607590287
0.8300000000000001,-0.99,0.3745521069077055
0.8400000000000001,-0.99,0.4145504201757405
0.8500000000000001,-0.99,0.4529126923254135
0.8600000000000001,-0.99,0.4894875249946047
0.8700000000000001,-0.99,0.5241305740282209
0.8800000000000001,-0.99,0.5567051191386303
0.8900000000000001,-0.99,0.5870826034781753
0.9000000000000001,-0.99,0.6151431409943208
0.9100000000000001,-0.99,0.6407759895651308
0.9199999999999999,-0.99,0.6638799880478311
0.9299999999999999,-0.99,0.6843639555156225
0.94,-0.99,0.7021470511071448
0.95,-0.99,0.7171590930684216
0.96,-0.99,0.7293408357281823
0.97,-0.99,0.7386442033134557
0.98,-0.99,0.7450324796826886
0.99,-0.99,0.7484804532275774
1.0,-0.99,0.748974516371769

-1.0,-0.98,0.7445378038848158
-0.99,-0.98,0.7411047775219777
-0.98,-0.98,0.7347469491808267
-0.97,-0.98,0.72548941030521
-0.96,-0.98,0.7133686961717027
-0.95,-0.98,0.6984326417015623
-0.94,-0.98,0.6807401926781483
-0.9299999999999999,-0.98,0.6603611731148451
-0.92,-0.98,0.6373760096915797
-0.91,-0.98,0.6118754143474625
-0.9,-0.98,0.5839600262822022
-0.89,-0.98,0.5537400147791653
-0.88,-0.98,0.5213346444175442
-0.87,-0.98,0.4868718043895498
-0.86,-0.98,0.4504875037802
-0.85,-0.98,0.41232533480159306
-0.84,-0.98,0.3725359061000513
-0.83,-0.98,0.33127624837259895
-0.8200000000000001,-0.98,0.28870919463854183
-0.81,-0.98,0.2450027376119307
-0.8,-0.98,0.2003293667110692
-0.79,-0.98,0.15486538732158125
-0.78,-0.98,0.10879022499960028
-0.77,-0.98,0.062285717361072086
-0.76,-0.98,0.01553539645175722
-0.75,-0.98,-0.03127623556990512
-0.74,-0.98,-0.07796443457852609
-0.73,-0.98,-0.12434494358242754
-0.72,-0.98,-0.17023471990181016
-0.71,-0.98,-0.2154526575545861
-0.7,-0.98,-0.2598203019989507
-0.69,-0.98,-0.3031625544119298
-0.6799999999999999,-0.98,-0.3453083627244421
-0.6699999999999999,-0.98,-0.38609139668566594
-0.6599999999999999,-0.98,-0.42535070429255206
-0.6499999999999999,-0.98,-0.46293134699384764
-0.64,-0.98,-0.4986850111617738
-0.63,-0.98,-0.5324705934181551
-0.62,-0.98,-0.5641547575049888
-0.61,-0.98,-0.593612460501743
-0.6,-0.98,-0.6207274463126333
-0.59,-0.98,-0.6453927044763234
-0.5800000000000001,-0.98,-0.6675108924873249
-0.5700000000000001,-0.98,-0.686994719962398
-0.56,-0.98,-0.7037672931358124
-0.55,-0.98,-0.7177624183239124
-0.54,-0.98,-0.728924863161345
-0.53,-0.98,-0.7372105745779729
-0.52,-0.98,-0.7425868526562168
-0.51,-0.98,-0.7450324796826888
-0.5,-0.98,-0.7445378038848165
-0.49,-0.98,-0.7411047775219776
-0.48,-0.98,-0.7347469491808265
-0.47,-0.98,-0.7254894103052092
-0.45999999999999996,-0.98,-0.713368696171703
-0.44999999999999996,-0.98,-0.6984326417015625
-0.43999999999999995,-0.98,-0.6807401926781483
-0.42999999999999994,-0.98,-0.6603611731148448
-0.42000000000000004,-0.98,-0.6373760096915795
-0.41000000000000003,-0.98,-0.6118754143474624
-0.4,-0.98,-0.5839600262822026
-0.39,-0.98,-0.5537400147791653
-0.38,-0.98,-0.5213346444175436
-0.37,-0.98,-0.4868718043895496
-0.36,-0.98,-0.45048750378019975
-0.35,-0.98,-0.41232533480159295
-0.33999999999999997,-0.98,-0.3725359061000514
-0.32999999999999996,-0.98,-0.33127624837259906
-0.31999999999999995,-0.98,-0.2887091946385418
-0.30999999999999994,-0.98,-0.2450027376119307
-0.29999999999999993,-0.98,-0.20032936671106932
-0.29000000000000004,-0.98,-0.15486538732158114
-0.28,-0.98,-0.10879022499960023
-0.27,-0.98,-0.0622857173610721
-0.26,-0.98,-0.015535396451757302
-0.25,-0.98,0.03127623556990525
-0.24,-0.98,0.0779644345785261
-0.22999999999999998,-0.98,0.12434494358242769
-0.21999999999999997,-0.98,0.17023471990181027
-0.20999999999999996,-0.98,0.2154526575545863
-0.19999999999999996,-0.98,0.2598203019989505
-0.18999999999999995,-0.98,0.30316255441193013
-0.17999999999999994,-0.98,0.3453083627244422
-0.16999999999999993,-0.98,0.3860913966856661
-0.16000000000000003,-0.98,0.42535070429255223
-0.15000000000000002,-0.98,0.46293134699384847
-0.14,-0.98,0.4986850111617743
-0.13,-0.98,0.5324705934181553
-0.12,-0.98,0.5641547575049892
-0.10999999999999999,-0.98,0.593612460501743
-0.09999999999999998,-0.98,0.6207274463126335
-0.08999999999999997,-0.98,0.6453927044763235
-0.07999999999999996,-0.98,0.6675108924873246
-0.06999999999999995,-0.98,0.6869947199623976
-0.05999999999999994,-0.98,0.7037672931358125
-0.04999999999999993,-0.98,0.7177624183239124
-0.040000000000000036,-0.98,0.7289248631613449
-0.030000000000000027,-0.98,0.7372105745779732
-0.020000000000000018,-0.98,0.7425868526562166
-0.010000000000000009,-0.98,0.7450324796826882
0.0,-0.98,0.744537803884816
0.010000000000000009,-0.98,0.741104777521977
0.020000000000000018,-0.98,0.7347469491808265
0.030000000000000027,-0.98,0.7254894103052096
0.040000000000000036,-0.98,0.7133686961717027
0.050000000000000044,-0.98,0.6984326417015626
0.06000000000000005,-0.98,0.6807401926781483
0.07000000000000006,-0.98,0.6603611731148451
0.08000000000000007,-0.98,0.6373760096915797
0.09000000000000008,-0.98,0.6118754143474623
0.10000000000000009,-0.98,0.583960026282202
0.1100000000000001,-0.98,0.5537400147791652
0.1200000000000001,-0.98,0.521334644417544
0.13000000000000012,-0.98,0.48687180438955
0.14000000000000012,-0.98,0.45048750378019997
0.15000000000000013,-0.98,0.412325334801593
0.15999999999999992,-0.98,0.3725359061000516
0.16999999999999993,-0.98,0.3312762483725992
0.17999999999999994,-0.98,0.28870919463854194
0.18999999999999995,-0.98,0.2450027376119311
0.19999999999999996,-0.98,0.20032936671106932
0.20999999999999996,-0.98,0.15486538732158142
0.21999999999999997,-0.98,0.10879022499960044
0.22999999999999998,-0.98,0.06228571736107215
0.24,-0.98,0.015535396451757333
0.25,-0.98,-0.031276235569905095
0.26,-0.98,-0.07796443457852599
0.27,-0.98,-0.12434494358242743
0.28,-0.98,-0.17023471990181022
0.29000000000000004,-0.98,-0.21545265755458626
0.30000000000000004,-0.98,-0.25982030199895045
0.31000000000000005,-0.98,-0.3031625544119301
0.32000000000000006,-0.98,-0.3453083627244422
0.33000000000000007,-0.98,-0.38609139668566594
0.3400000000000001,-0.98,-0.425350704292552
0.3500000000000001,-0.98,-0.4629313469938482
0.3600000000000001,-0.98,-0.49868501116177416
0.3700000000000001,-0.98,-0.5324705934181555
0.3800000000000001,-0.98,-0.5641547575049892
0.3900000000000001,-0.98,-0.5936124605017432
0.40000000000000013,-0.98,-0.6207274463126333
0.4099999999999999,-0.98,-0.6453927044763234
0.41999999999999993,-0.98,-0.6675108924873248
0.42999999999999994,-0.98,-0.6869947199623978
0.43999999999999995,-0.98,-0.7037672931358121
0.44999999999999996,-0.98,-0.7177624183239122
0.45999999999999996,-0.98,-0.7289248631613452
0.47,-0.98,-0.737210574577973
0.48,-0.98,-0.7425868526562164
0.49,-0.98,-0.7450324796826884
0.5,-0.98,-0.744537803884816
0.51,-0.98,-0.7411047775219775
0.52,-0.98,-0.7347469491808265
0.53,-0.98,-0.7254894103052097
0.54,-0.98,-0.7133686961717027
0.55,-0.98,-0.6984326417015618
0.56,-0.98,-0.6807401926781488
0.5700000000000001,-0.98,-0.6603611731148451
0.5800000000000001,-0.98,-0.6373760096915795
0.5900000000000001,-0.98,-0.6118754143474623
0.6000000000000001,-0.98,-0.5839600262822024
0.6100000000000001,-0.98,-0.5537400147791655
0.6200000000000001,-0.98,-0.5213346444175442
0.6300000000000001,-0.98,-0.48687180438955024
0.6400000000000001,-0.98,-0.45048750378019975
0.6500000000000001,-0.98,-0.41232533480159317
0.6600000000000001,-0.98,-0.3725359061000516
0.6699999999999999,-0.98,-0.33127624837259917
0.6799999999999999,-0.98,-0.2887091946385418
0.69,-0.98,-0.24500273761193078
0.7,-0.98,-0.20032936671106932
0.71,-0.98,-0.15486538732158134
0.72,-0.98,-0.10879022499960031
0.73,-0.98,-0.06228571736107211
0.74,-0.98,-0.015535396451757284
0.75,-0.98,0.03127623556990505
0.76,-0.98,0.077964434578526
0.77,-0.98,0.12434494358242743
0.78,-0.98,0.17023471990181033
0.79,-0.98,0.2154526575545862
0.8,-0.98,0.25982030199895034
0.81,-0.98,0.30316255441192996
0.8200000000000001,-0.98,0.3453083627244421
0.8300000000000001,-0.98,0.38609139668566606
0.8400000000000001,-0.98,0.4253507042925524
0.8500000000000001,-0.98,0.4629313469938481
0.8600000000000001,-0.98,0.4986850111617741
0.8700000000000001,-0.98,0.5324705934181551
0.8800000000000001,-0.98,0.5641547575049889
0.8900000000000001,-0.98,0.5936124605017428
0.9000000000000001,-0.98,0.6207274463126333
0.9100000000000001,-0.98,0.6453927044763232
0.9199999999999999,-0.98,0.667510892487325
0.9299999999999999,-0.98,0.6869947199623979
0.94,-0.98,0.7037672931358121
0.95,-0.98,0.7177624183239129
0.96,-0.98,0.7289248631613452
0.97,-0.98,0.7372105745779733
0.98,-0.98,0.7425868526562169
0.99,-0.98,0.7450324796826888
1.0,-0.98,0.7445378038848158

-1.0,-0.97,0.7371627408328973
-0.99,-0.97,0.7327720337918928
-0.98,-0.97,0.7254894103052101
-0.97,-0.97,0.7153436115606363
-0.96,-0.97,0.7023746783906426
-0.95,-0.97,0.6866337932495088
-0.94,-0.97,0.6681830782195604
-0.9299999999999999,-0.97,0.64709534984369
-0.92,-0.97,0.6234538317517317
-0.91,-0.97,0.5973518262148115
-0.9,-0.97,0.5688923459239124
-0.89,-0.97,0.5381877074458417
-0.88,-0.97,0.5053590879610574
-0.87,-0.97,0.4705360470326976
-0.86,-0.97,0.43385601529417117
-0.85,-0.97,0.3954637520732377
-0.84,-0.97,0.3555107740930742
-0.83,-0.97,0.3141547575049888
-0.8200000000000001,-0.97,0.2715589156126873
-0.81,-0.97,0.2278913547439303
-0.8,-0.97,0.18332441081165557
-0.79,-0.97,0.13803396918286368
-0.78,-0.97,0.09219877053942907
-0.77,-0.97,0.04599970547028691
-0.76,-0.97,-0.0003808994210799735
-0.75,-0.97,-0.04676000107644841
-0.74,-0.97,-0.09295456237018047
-0.73,-0.97,-0.13878227447313735
-0.72,-0.97,-0.18406227634233902
-0.71,-0.97,-0.22861586849687301
-0.7,-0.97,-0.2722672182631046
-0.69,-0.97,-0.3148440537059124
-0.6799999999999999,-0.97,-0.356178343507309
-0.6699999999999999,-0.97,-0.3961069601092887
-0.6599999999999999,-0.97,-0.4344723235037733
-0.6499999999999999,-0.97,-0.47112302312891274
-0.64,-0.97,-0.5059144154173983
-0.63,-0.97,-0.5387091946385419
-0.62,-0.97,-0.5693779347812677
-0.61,-0.97,-0.5977996003394467
-0.6,-0.97,-0.6238620239837454
-0.59,-0.97,-0.6474623492348275
-0.5800000000000001,-0.97,-0.6685074363908902
-0.5700000000000001,-0.97,-0.6869142301075148
-0.56,-0.97,-0.7026100871791655
-0.55,-0.97,-0.7155330632287353
-0.54,-0.97,-0.7256321571737034
-0.53,-0.97,-0.7328675125041062
-0.52,-0.97,-0.7372105745779732
-0.51,-0.97,-0.7386442033134561
-0.5,-0.97,-0.7371627408328971
-0.49,-0.97,-0.7327720337918927
-0.48,-0.97,-0.7254894103052092
-0.47,-0.97,-0.7153436115606367
-0.45999999999999996,-0.97,-0.702374678390643
-0.44999999999999996,-0.97,-0.6866337932495088
-0.43999999999999995,-0.97,-0.66818307821956
-0.42999999999999994,-0.97,-0.6470953498436901
-0.42000000000000004,-0.97,-0.6234538317517317
-0.41000000000000003,-0.97,-0.5973518262148121
-0.4,-0.97,-0.5688923459239121
-0.39,-0.97,-0.5381877074458414
-0.38,-0.97,-0.5053590879610572
-0.37,-0.97,-0.47053604703269736
-0.36,-0.97,-0.43385601529417095
-0.35,-0.97,-0.39546375207323786
-0.33999999999999997,-0.97,-0.3555107740930744
-0.32999999999999996,-0.97,-0.3141547575049888
-0.31999999999999995,-0.97,-0.2715589156126873
-0.30999999999999994,-0.97,-0.2278913547439304
-0.29999999999999993,-0.97,-0.1833244108116555
-0.29000000000000004,-0.97,-0.13803396918286362
-0.28,-0.97,-0.09219877053942911
-0.27,-0.97,-0.045999705470287006
-0.26,-0.97,0.000380899421080088
-0.25,-0.97,0.046760001076448454
-0.24,-0.97,0.09295456237018057
-0.22999999999999998,-0.97,0.13878227447313743
-0.21999999999999997,-0.97,0.18406227634233924
-0.20999999999999996,-0.97,0.2286158684968729
-0.19999999999999996,-0.97,0.27226721826310496
-0.18999999999999995,-0.97,0.3148440537059125
-0.17999999999999994,-0.97,0.3561783435073091
-0.16999999999999993,-0.97,0.3961069601092888
-0.16000000000000003,-0.97,0.43447232350377407
-0.15000000000000002,-0.97,0.4711230231289133
-0.14,-0.97,0.5059144154173987
-0.13,-0.97,0.5387091946385423
-0.12,-0.97,0.5693779347812677
-0.10999999999999999,-0.97,0.597799600339447
-0.09999999999999998,-0.97,0.6238620239837455
-0.08999999999999997,-0.97,0.647462349234827
-0.07999999999999996,-0.97,0.66850743639089
-0.06999999999999995,-0.97,0.6869142301075151
-0.05999999999999994,-0.97,0.7026100871791655
-0.04999999999999993,-0.97,0.7155330632287356
-0.040000000000000036,-0.97,0.7256321571737039
-0.030000000000000027,-0.97,0.7328675125041062
-0.020000000000000018,-0.97,0.7372105745779727
-0.010000000000000009,-0.97,0.7386442033134557
0.0,-0.97,0.7371627408328968
0.010000000000000009,-0.97,0.7327720337918927
0.020000000000000018,-0.97,0.7254894103052097
0.030000000000000027,-0.97,0.7153436115606365
0.040000000000000036,-0.97,0.702374678390643
0.050000000000000044,-0.97,0.6866337932495087
0.06000000000000005,-0.97,0.6681830782195604
0.07000000000000006,-0.97,0.6470953498436901
0.08000000000000007,-0.97,0.6234538317517317
0.09000000000000008,-0.97,0.5973518262148114
0.10000000000000009,-0.97,0.568892345923912
0.1100000000000001,-0.97,0.5381877074458415
0.1200000000000001,-0.97,0.5053590879610577
0.13000000000000012,-0.97,0.47053604703269747
0.14000000000000012,-0.97,0.433856015294171
0.15000000000000013,-0.97,0.3954637520732381
0.15999999999999992,-0.97,0.35551077409307447
0.16999999999999993,-0.97,0.3141547575049889
0.17999999999999994,-0.97,0.2715589156126877
0.18999999999999995,-0.97,0.2278913547439304
0.19999999999999996,-0.97,0.18332441081165576
0.20999999999999996,-0.97,0.1380339691828638
0.21999999999999997,-0.97,0.09219877053942915
0.22999999999999998,-0.97,0.045999705470287026
0.24,-0.97,-0.00038089942107995614
0.25,-0.97,-0.046760001076448315
0.26,-0.97,-0.09295456237018034
0.27,-0.97,-0.13878227447313737
0.28,-0.97,-0.18406227634233913
0.29000000000000004,-0.97,-0.2286158684968728
0.30000000000000004,-0.97,-0.27226721826310496
0.31000000000000005,-0.97,-0.31484405370591256
0.32000000000000006,-0.97,-0.3561783435073089
0.33000000000000007,-0.97,-0.3961069601092886
0.3400000000000001,-0.97,-0.43447232350377385
0.3500000000000001,-0.97,-0.4711230231289131
0.3600000000000001,-0.97,-0.5059144154173988
0.3700000000000001,-0.97,-0.5387091946385423
0.3800000000000001,-0.97,-0.569377934781268
0.3900000000000001,-0.97,-0.5977996003394469
0.40000000000000013,-0.97,-0.6238620239837456
0.4099999999999999,-0.97,-0.6474623492348273
0.41999999999999993,-0.97,-0.6685074363908899
0.42999999999999994,-0.97,-0.6869142301075146
0.43999999999999995,-0.97,-0.7026100871791654
0.44999999999999996,-0.97,-0.7155330632287358
0.45999999999999996,-0.97,-0.7256321571737038
0.47,-0.97,-0.732867512504106
0.48,-0.97,-0.7372105745779729
0.49,-0.97,-0.7386442033134555
0.5,-0.97,-0.7371627408328969
0.51,-0.97,-0.732772033791893
0.52,-0.97,-0.7254894103052097
0.53,-0.97,-0.7153436115606363
0.54,-0.97,-0.7023746783906422
0.55,-0.97,-0.6866337932495092
0.56,-0.97,-0.6681830782195606
0.5700000000000001,-0.97,-0.64709534984369
0.5800000000000001,-0.97,-0.6234538317517317
0.5900000000000001,-0.97,-0.5973518262148119
0.6000000000000001,-0.97,-0.5688923459239124
0.6100000000000001,-0.97,-0.5381877074458417
0.6200000000000001,-0.97,-0.505359087961058
0.6300000000000001,-0.97,-0.47053604703269736
0.6400000000000001,-0.97,-0.43385601529417117
0.6500000000000001,-0.97,-0.3954637520732381
0.6600000000000001,-0.97,-0.3555107740930744
0.6699999999999999,-0.97,-0.3141547575049888