TITLE = "Solution" 
VARIABLES = "x", "y", "sol" 
ZONE STRANDID=1, SOLUTIONTIME= 1.9499999999999804, I= 201, J =201, DATAPACKING=POINT 
-1.0,-1.0,-0.1730797834760417
-0.99,-1.0,-0.1542845793781111
-0.98,-1.0,-0.1348804845312946
-0.97,-1.0,-0.114944078033065
-0.96,-1.0,-0.09455403977179301
-0.95,-1.0,-0.07379083991317355
-0.94,-1.0,-0.0527364213212448
-0.9299999999999999,-1.0,-0.03147387616734027
-0.92,-1.0,-0.01008711800324951
-0.91,-1.0,0.011339449407234192
-0.9,-1.0,0.03272126519140925
-0.89,-1.0,0.05397394509079796
-0.88,-1.0,0.07501361448726317
-0.87,-1.0,0.09575723941780778
-0.86,-1.0,0.1161229542716917
-0.85,-1.0,0.13603038487659683
-0.84,-1.0,0.15540096569876527
-0.83,-1.0,0.17415824990526857
-0.8200000000000001,-1.0,0.19222821106473198
-0.81,-1.0,0.20953953529583882
-0.8,-1.0,0.22602390271064077
-0.79,-1.0,0.24161625704194267
-0.78,-1.0,0.25625506239066803
-0.77,-1.0,0.2698825460799393
-0.76,-1.0,0.28244492665744003
-0.75,-1.0,0.2938926261462369
-0.74,-1.0,0.30418046570640345
-0.73,-1.0,0.31326784393526313
-0.72,-1.0,0.32111889710257446
-0.71,-1.0,0.32770264068829114
-0.7,-1.0,0.33299309166430663
-0.69,-1.0,0.33696937103759617
-0.6799999999999999,-1.0,0.3396157862500622
-0.6699999999999999,-1.0,0.3409218931098935
-0.6599999999999999,-1.0,0.3408825370100173
-0.6499999999999999,-1.0,0.33949787327098047
-0.64,-1.0,0.3367733665279674
-0.63,-1.0,0.3327197691643846
-0.62,-1.0,0.3273530788771135
-0.61,-1.0,0.3206944755409104
-0.6,-1.0,0.31277023762111716
-0.59,-1.0,0.3036116384645628
-0.5800000000000001,-1.0,0.29325482287795224
-0.5700000000000001,-1.0,0.281740664480827
-0.56,-1.0,0.26911460439606233
-0.55,-1.0,0.255426471914514
-0.54,-1.0,0.24073028784157394
-0.53,-1.0,0.2250840513017305
-0.52,-1.0,0.2085495108425206
-0.51,-1.0,0.19119192074122393
-0.5,-1.0,0.17307978347604178
-0.49,-1.0,0.15428457937811105
-0.48,-1.0,0.1348804845312946
-0.47,-1.0,0.11494407803306496
-0.45999999999999996,-1.0,0.09455403977179294
-0.44999999999999996,-1.0,0.0737908399131735
-0.43999999999999995,-1.0,0.0527364213212448
-0.42999999999999994,-1.0,0.031473876167340244
-0.42000000000000004,-1.0,0.010087118003249478
-0.41000000000000003,-1.0,-0.011339449407234248
-0.4,-1.0,-0.03272126519140925
-0.39,-1.0,-0.053973945090797996
-0.38,-1.0,-0.0750136144872631
-0.37,-1.0,-0.09575723941780764
-0.36,-1.0,-0.1161229542716918
-0.35,-1.0,-0.13603038487659674
-0.33999999999999997,-1.0,-0.1554009656987652
-0.32999999999999996,-1.0,-0.17415824990526854
-0.31999999999999995,-1.0,-0.19222821106473198
-0.30999999999999994,-1.0,-0.2095395352958389
-0.29999999999999993,-1.0,-0.22602390271064077
-0.29000000000000004,-1.0,-0.2416162570419426
-0.28,-1.0,-0.2562550623906678
-0.27,-1.0,-0.2698825460799391
-0.26,-1.0,-0.28244492665744003
-0.25,-1.0,-0.2938926261462367
-0.24,-1.0,-0.30418046570640345
-0.22999999999999998,-1.0,-0.31326784393526286
-0.21999999999999997,-1.0,-0.3211188971025744
-0.20999999999999996,-1.0,-0.32770264068829114
-0.19999999999999996,-1.0,-0.33299309166430685
-0.18999999999999995,-1.0,-0.33696937103759617
-0.17999999999999994,-1.0,-0.33961578625006233
-0.16999999999999993,-1.0,-0.3409218931098936
-0.16000000000000003,-1.0,-0.3408825370100175
-0.15000000000000002,-1.0,-0.3394978732709803
-0.14,-1.0,-0.3367733665279674
-0.13,-1.0,-0.3327197691643846
-0.12,-1.0,-0.3273530788771136
-0.10999999999999999,-1.0,-0.32069447554091063
-0.09999999999999998,-1.0,-0.31277023762111716
-0.08999999999999997,-1.0,-0.30361163846456274
-0.07999999999999996,-1.0,-0.29325482287795246
-0.06999999999999995,-1.0,-0.28174066448082724
-0.05999999999999994,-1.0,-0.2691146043960623
-0.04999999999999993,-1.0,-0.25542647191451384
-0.040000000000000036,-1.0,-0.2407302878415739
-0.030000000000000027,-1.0,-0.22508405130173043
-0.020000000000000018,-1.0,-0.20854951084252066
-0.010000000000000009,-1.0,-0.191191920741224
0.0,-1.0,-0.17307978347604167
0.010000000000000009,-1.0,-0.15428457937811108
0.020000000000000018,-1.0,-0.13488048453129456
0.030000000000000027,-1.0,-0.11494407803306493
0.040000000000000036,-1.0,-0.09455403977179297
0.050000000000000044,-1.0,-0.07379083991317348
0.06000000000000005,-1.0,-0.05273642132124484
0.07000000000000006,-1.0,-0.0314738761673402
0.08000000000000007,-1.0,-0.010087118003249452
0.09000000000000008,-1.0,0.011339449407234314
0.10000000000000009,-1.0,0.03272126519140929
0.1100000000000001,-1.0,0.05397394509079792
0.1200000000000001,-1.0,0.07501361448726321
0.13000000000000012,-1.0,0.09575723941780784
0.14000000000000012,-1.0,0.11612295427169174
0.15000000000000013,-1.0,0.13603038487659672
0.15999999999999992,-1.0,0.1554009656987652
0.16999999999999993,-1.0,0.1741582499052686
0.17999999999999994,-1.0,0.19222821106473198
0.18999999999999995,-1.0,0.20953953529583896
0.19999999999999996,-1.0,0.22602390271064082
0.20999999999999996,-1.0,0.24161625704194267
0.21999999999999997,-1.0,0.25625506239066786
0.22999999999999998,-1.0,0.269882546079939
0.24,-1.0,0.2824449266574398
0.25,-1.0,0.2938926261462365
0.26,-1.0,0.30418046570640345
0.27,-1.0,0.31326784393526313
0.28,-1.0,0.32111889710257435
0.29000000000000004,-1.0,0.3277026406882912
0.30000000000000004,-1.0,0.3329930916643068
0.31000000000000005,-1.0,0.3369693710375963
0.32000000000000006,-1.0,0.3396157862500623
0.33000000000000007,-1.0,0.3409218931098932
0.3400000000000001,-1.0,0.3408825370100174
0.3500000000000001,-1.0,0.33949787327098024
0.3600000000000001,-1.0,0.3367733665279673
0.3700000000000001,-1.0,0.3327197691643845
0.3800000000000001,-1.0,0.3273530788771138
0.3900000000000001,-1.0,0.3206944755409107
0.40000000000000013,-1.0,0.31277023762111716
0.4099999999999999,-1.0,0.3036116384645626
0.41999999999999993,-1.0,0.29325482287795207
0.42999999999999994,-1.0,0.281740664480827
0.43999999999999995,-1.0,0.2691146043960623
0.44999999999999996,-1.0,0.25542647191451384
0.45999999999999996,-1.0,0.2407302878415739
0.47,-1.0,0.22508405130173054
0.48,-1.0,0.2085495108425206
0.49,-1.0,0.19119192074122407
0.5,-1.0,0.1730797834760418
0.51,-1.0,0.1542845793781112
0.52,-1.0,0.13488048453129464
0.53,-1.0,0.114944078033065
0.54,-1.0,0.094554039771793
0.55,-1.0,0.07379083991317364
0.56,-1.0,0.0527364213212448
0.5700000000000001,-1.0,0.03147387616734027
0.5800000000000001,-1.0,0.010087118003249532
0.5900000000000001,-1.0,-0.011339449407234165
0.6000000000000001,-1.0,-0.03272126519140925
0.6100000000000001,-1.0,-0.05397394509079797
0.6200000000000001,-1.0,-0.07501361448726321
0.6300000000000001,-1.0,-0.09575723941780784
0.6400000000000001,-1.0,-0.11612295427169157
0.6500000000000001,-1.0,-0.1360303848765966
0.6600000000000001,-1.0,-0.1554009656987653
0.6699999999999999,-1.0,-0.17415824990526851
0.6799999999999999,-1.0,-0.19222821106473187
0.69,-1.0,-0.2095395352958387
0.7,-1.0,-0.22602390271064074
0.71,-1.0,-0.24161625704194273
0.72,-1.0,-0.25625506239066764
0.73,-1.0,-0.2698825460799392
0.74,-1.0,-0.2824449266574399
0.75,-1.0,-0.29389262614623646
0.76,-1.0,-0.30418046570640345
0.77,-1.0,-0.3132678439352629
0.78,-1.0,-0.32111889710257424
0.79,-1.0,-0.32770264068829125
0.8,-1.0,-0.3329930916643069
0.81,-1.0,-0.33696937103759617
0.8200000000000001,-1.0,-0.3396157862500623
0.8300000000000001,-1.0,-0.3409218931098934
0.8400000000000001,-1.0,-0.3408825370100175
0.8500000000000001,-1.0,-0.3394978732709801
0.8600000000000001,-1.0,-0.33677336652796724
0.8700000000000001,-1.0,-0.33271976916438456
0.8800000000000001,-1.0,-0.32735307887711357
0.8900000000000001,-1.0,-0.3206944755409105
0.9000000000000001,-1.0,-0.31277023762111705
0.9100000000000001,-1.0,-0.3036116384645627
0.9199999999999999,-1.0,-0.2932548228779521
0.9299999999999999,-1.0,-0.2817406644808271
0.94,-1.0,-0.26911460439606233
0.95,-1.0,-0.25542647191451384
0.96,-1.0,-0.24073028784157405
0.97,-1.0,-0.22508405130173045
0.98,-1.0,-0.20854951084252082
0.99,-1.0,-0.19119192074122404
1.0,-1.0,-0.1730797834760417

-1.0,-0.99,-0.15428457937811113
-0.99,-0.99,-0.13305559999927374
-0.98,-0.99,-0.11130151095456078
-0.97,-0.99,-0.08910816569493364
-0.96,-0.99,-0.06656315121495718
-0.95,-0.99,-0.04375544238694644
-0.94,-0.99,-0.020775050817794603
-0.9299999999999999,-0.99,0.0022873303857171776
-0.92,-0.99,0.02534068454117836
-0.91,-0.99,0.04829403059181311
-0.9,-0.99,0.07105678216714588
-0.89,-0.99,0.0935391050860207
-0.88,-0.99,0.1156522718910732
-0.87,-0.99,0.1373090120154688
-0.86,-0.99,0.15842385619996008
-0.85,-0.99,0.1789134738010052
-0.84,-0.99,0.19869700165874876
-0.83,-0.99,0.2176963632269708
-0.8200000000000001,-0.99,0.23583657670554392
-0.81,-0.99,0.2530460509593434
-0.8,-0.99,0.2692568680557505
-0.79,-0.99,0.2844050513057036
-0.78,-0.99,0.29843081775046143
-0.77,-0.99,0.3112788140976299
-0.76,-0.99,0.32289833517531835
-0.75,-0.99,0.3332435240422866
-0.74,-0.99,0.3422735529643446
-0.73,-0.99,0.3499527845427644
-0.72,-0.99,0.3562509123588133
-0.71,-0.99,0.3611430805793421
-0.7,-0.99,0.36460998205140394
-0.69,-0.99,0.3666379344987648
-0.6799999999999999,-0.99,0.3672189345195986
-0.6699999999999999,-0.99,0.36635068917225616
-0.6599999999999999,-0.99,0.36403662502446066
-0.6499999999999999,-0.99,0.3602858746302072
-0.64,-0.99,0.35511324048774784
-0.63,-0.99,0.34853913662089064
-0.62,-0.99,0.34058950801417587
-0.61,-0.99,0.3312957282198747
-0.6,-0.99,0.32069447554091074
-0.59,-0.99,0.30882758827835616
-0.5800000000000001,-0.99,0.29574189961477115
-0.5700000000000001,-0.99,0.2814890527850291
-0.56,-0.99,0.26612529726405965
-0.55,-0.99,0.2497112667758723
-0.54,-0.99,0.2323117399999469
-0.53,-0.99,0.21399538491937994
-0.52,-0.99,0.19483448781972812
-0.51,-0.99,0.1749046680080626
-0.5,-0.99,0.15428457937811105
-0.49,-0.99,0.13305559999927372
-0.48,-0.99,0.1113015109545607
-0.47,-0.99,0.08910816569493357
-0.45999999999999996,-0.99,0.06656315121495715
-0.44999999999999996,-0.99,0.04375544238694644
-0.43999999999999995,-0.99,0.02077505081779458
-0.42999999999999994,-0.99,-0.0022873303857172053
-0.42000000000000004,-0.99,-0.025340684541178403
-0.41000000000000003,-0.99,-0.04829403059181311
-0.4,-0.99,-0.07105678216714591
-0.39,-0.99,-0.09353910508602062
-0.38,-0.99,-0.11565227189107308
-0.37,-0.99,-0.1373090120154689
-0.36,-0.99,-0.15842385619996
-0.35,-0.99,-0.17891347380100514
-0.33999999999999997,-0.99,-0.19869700165874876
-0.32999999999999996,-0.99,-0.2176963632269709
-0.31999999999999995,-0.99,-0.23583657670554398
-0.30999999999999994,-0.99,-0.2530460509593434
-0.29999999999999993,-0.99,-0.26925686805575033
-0.29000000000000004,-0.99,-0.28440505130570326
-0.28,-0.99,-0.2984308177504612
-0.27,-0.99,-0.3112788140976299
-0.26,-0.99,-0.32289833517531813
-0.25,-0.99,-0.3332435240422866
-0.24,-0.99,-0.34227355296434425
-0.22999999999999998,-0.99,-0.34995278454276435
-0.21999999999999997,-0.99,-0.35625091235881323
-0.20999999999999996,-0.99,-0.3611430805793424
-0.19999999999999996,-0.99,-0.36460998205140405
-0.18999999999999995,-0.99,-0.36663793449876503
-0.17999999999999994,-0.99,-0.36721893451959864
-0.16999999999999993,-0.99,-0.3663506891722563
-0.16000000000000003,-0.99,-0.3640366250244605
-0.15000000000000002,-0.99,-0.36028587463020734
-0.14,-0.99,-0.35511324048774784
-0.13,-0.99,-0.34853913662089075
-0.12,-0.99,-0.3405895080141761
-0.10999999999999999,-0.99,-0.3312957282198747
-0.09999999999999998,-0.99,-0.3206944755409106
-0.08999999999999997,-0.99,-0.3088275882783563
-0.07999999999999996,-0.99,-0.29574189961477143
-0.06999999999999995,-0.99,-0.2814890527850289
-0.05999999999999994,-0.99,-0.26612529726405953
-0.04999999999999993,-0.99,-0.24971126677587221
-0.040000000000000036,-0.99,-0.23231173999994678
-0.030000000000000027,-0.99,-0.21399538491938003
-0.020000000000000018,-0.99,-0.19483448781972823
-0.010000000000000009,-0.99,-0.17490466800806254
0.0,-0.99,-0.15428457937811108
0.010000000000000009,-0.99,-0.13305559999927372
0.020000000000000018,-0.99,-0.11130151095456069
0.030000000000000027,-0.99,-0.0891081656949336
0.040000000000000036,-0.99,-0.06656315121495712
0.050000000000000044,-0.99,-0.04375544238694649
0.06000000000000005,-0.99,-0.02077505081779453
0.07000000000000006,-0.99,0.002287330385717233
0.08000000000000007,-0.99,0.02534068454117848
0.09000000000000008,-0.99,0.048294030591813135
0.10000000000000009,-0.99,0.07105678216714584
0.1100000000000001,-0.99,0.09353910508602073
0.1200000000000001,-0.99,0.11565227189107327
0.13000000000000012,-0.99,0.13730901201546886
0.14000000000000012,-0.99,0.15842385619995994
0.15000000000000013,-0.99,0.17891347380100509
0.15999999999999992,-0.99,0.19869700165874885
0.16999999999999993,-0.99,0.21769636322697078
0.17999999999999994,-0.99,0.23583657670554403
0.18999999999999995,-0.99,0.2530460509593434
0.19999999999999996,-0.99,0.26925686805575055
0.20999999999999996,-0.99,0.2844050513057033
0.21999999999999997,-0.99,0.2984308177504611
0.22999999999999998,-0.99,0.3112788140976297
0.24,-0.99,0.32289833517531796
0.25,-0.99,0.33324352404228647
0.26,-0.99,0.3422735529643446
0.27,-0.99,0.34995278454276424
0.28,-0.99,0.3562509123588133
0.29000000000000004,-0.99,0.3611430805793423
0.30000000000000004,-0.99,0.36460998205140405
0.31000000000000005,-0.99,0.3666379344987649
0.32000000000000006,-0.99,0.3672189345195982
0.33000000000000007,-0.99,0.3663506891722562
0.3400000000000001,-0.99,0.36403662502446044
0.3500000000000001,-0.99,0.3602858746302072
0.3600000000000001,-0.99,0.35511324048774773
0.3700000000000001,-0.99,0.34853913662089087
0.3800000000000001,-0.99,0.3405895080141761
0.3900000000000001,-0.99,0.3312957282198747
0.40000000000000013,-0.99,0.3206944755409105
0.4099999999999999,-0.99,0.30882758827835594
0.41999999999999993,-0.99,0.29574189961477115
0.42999999999999994,-0.99,0.28148905278502895
0.43999999999999995,-0.99,0.2661252972640595
0.44999999999999996,-0.99,0.24971126677587224
0.45999999999999996,-0.99,0.2323117399999469
0.47,-0.99,0.21399538491937997
0.48,-0.99,0.19483448781972829
0.49,-0.99,0.17490466800806265
0.5,-0.99,0.1542845793781112
0.51,-0.99,0.1330555999992738
0.52,-0.99,0.11130151095456077
0.53,-0.99,0.08910816569493363
0.54,-0.99,0.06656315121495728
0.55,-0.99,0.04375544238694646
0.56,-0.99,0.0207750508177946
0.5700000000000001,-0.99,-0.00228733038571715
0.5800000000000001,-0.99,-0.025340684541178334
0.5900000000000001,-0.99,-0.04829403059181309
0.6000000000000001,-0.99,-0.07105678216714587
0.6100000000000001,-0.99,-0.09353910508602073
0.6200000000000001,-0.99,-0.11565227189107327
0.6300000000000001,-0.99,-0.1373090120154687
0.6400000000000001,-0.99,-0.15842385619995983
0.6500000000000001,-0.99,-0.17891347380100522
0.6600000000000001,-0.99,-0.19869700165874873
0.6699999999999999,-0.99,-0.21769636322697072
0.6799999999999999,-0.99,-0.2358365767055438
0.69,-0.99,-0.2530460509593434
0.7,-0.99,-0.26925686805575055
0.71,-0.99,-0.28440505130570315
0.72,-0.99,-0.2984308177504613
0.73,-0.99,-0.31127881409762986
0.74,-0.99,-0.32289833517531796
0.75,-0.99,-0.3332435240422865
0.76,-0.99,-0.34227355296434436
0.77,-0.99,-0.34995278454276413
0.78,-0.99,-0.35625091235881334
0.79,-0.99,-0.36114308057934236
0.8,-0.99,-0.36460998205140394
0.81,-0.99,-0.3666379344987649
0.8200000000000001,-0.99,-0.3672189345195985
0.8300000000000001,-0.99,-0.3663506891722563
0.8400000000000001,-0.99,-0.3640366250244602
0.8500000000000001,-0.99,-0.36028587463020717
0.8600000000000001,-0.99,-0.3551132404877478
0.8700000000000001,-0.99,-0.34853913662089064
0.8800000000000001,-0.99,-0.340589508014176
0.8900000000000001,-0.99,-0.3312957282198746
0.9000000000000001,-0.99,-0.3206944755409106
0.9100000000000001,-0.99,-0.308827588278356
0.9199999999999999,-0.99,-0.29574189961477115
0.9299999999999999,-0.99,-0.28148905278502895
0.94,-0.99,-0.26612529726405953
0.95,-0.99,-0.2497112667758724
0.96,-0.99,-0.23231173999994684
0.97,-0.99,-0.2139953849193802
0.98,-0.99,-0.19483448781972823
0.99,-0.99,-0.17490466800806248
1.0,-0.99,-0.15428457937811113

-1.0,-0.98,-0.1348804845312946
-0.99,-0.98,-0.11130151095456076
-0.98,-0.98,-0.0872832811629128
-0.97,-0.98,-0.06292058413645293
-0.96,-0.98,-0.03830956831008706
-0.95,-0.98,-0.013547362119578238
-0.94,-0.98,0.011268309320015536
-0.9299999999999999,-0.98,0.036039509890724034
-0.92,-0.98,0.0606684789807798
-0.91,-0.98,0.08505801730109006
-0.9,-0.98,0.10911187048642457
-0.89,-0.98,0.13273510896742113
-0.88,-0.98,0.15583450261422632
-0.87,-0.98,0.17831888867322548
-0.86,-0.98,0.20009953154478227
-0.85,-0.98,0.22109047298211204
-0.84,-0.98,0.2412088713292107
-0.83,-0.98,0.2603753284590241
-0.8200000000000001,-0.98,0.2785142031215823
-0.81,-0.98,0.2955539094654557
-0.8,-0.98,0.3114271995544063
-0.79,-0.98,0.3260714287642692
-0.78,-0.98,0.3394288030126653
-0.77,-0.98,0.3514466068458405
-0.76,-0.98,0.3620774114824765
-0.75,-0.98,0.37127926199342604
-0.74,-0.98,0.3790158428786474
-0.73,-0.98,0.3852566213878947
-0.72,-0.98,0.38997696801953197
-0.71,-0.98,0.39315825372192603
-0.7,-0.98,0.39478792341380015
-0.69,-0.98,0.3948595455334064
-0.6799999999999999,-0.98,0.39337283742095885
-0.6699999999999999,-0.98,0.3903336664341657
-0.6599999999999999,-0.98,0.3857540267924461
-0.6499999999999999,-0.98,0.37965199224122814
-0.64,-0.98,0.3720516447231305
-0.63,-0.98,0.3629829793375391
-0.62,-0.98,0.3524817859636519
-0.61,-0.98,0.3405895080141761
-0.6,-0.98,0.3273530788771137
-0.59,-0.98,0.312824736691119
-0.5800000000000001,-0.98,0.2970618181854329
-0.5700000000000001,-0.98,0.2801265323980038
-0.56,-0.98,0.2620857151648389
-0.55,-0.98,0.24301056534949256
-0.54,-0.98,0.2229763638536783
-0.53,-0.98,0.2020621765179445
-0.52,-0.98,0.18035054208492196
-0.51,-0.98,0.15792714645661526
-0.5,-0.98,0.1348804845312946
-0.49,-0.98,0.1113015109545607
-0.48,-0.98,0.08728328116291273
-0.47,-0.98,0.06292058413645292
-0.45999999999999996,-0.98,0.03830956831008705
-0.44999999999999996,-0.98,0.01354736211957822
-0.43999999999999995,-0.98,-0.011268309320015567
-0.42999999999999994,-0.98,-0.03603950989072406
-0.42000000000000004,-0.98,-0.0606684789807798
-0.41000000000000003,-0.98,-0.08505801730109008
-0.4,-0.98,-0.10911187048642446
-0.39,-0.98,-0.132735108967421
-0.38,-0.98,-0.1558345026142264
-0.37,-0.98,-0.17831888867322543
-0.36,-0.98,-0.2000995315447823
-0.35,-0.98,-0.22109047298211199
-0.33999999999999997,-0.98,-0.24120887132921082
-0.32999999999999996,-0.98,-0.2603753284590242
-0.31999999999999995,-0.98,-0.2785142031215823
-0.30999999999999994,-0.98,-0.29555390946545546
-0.29999999999999993,-0.98,-0.3114271995544059
-0.29000000000000004,-0.98,-0.3260714287642689
-0.28,-0.98,-0.33942880301266537
-0.27,-0.98,-0.35144660684584017
-0.26,-0.98,-0.3620774114824765
-0.25,-0.98,-0.37127926199342565
-0.24,-0.98,-0.3790158428786474
-0.22999999999999998,-0.98,-0.38525662138789457
-0.21999999999999997,-0.98,-0.3899769680195323
-0.20999999999999996,-0.98,-0.3931582537219262
-0.19999999999999996,-0.98,-0.3947879234138004
-0.18999999999999995,-0.98,-0.3948595455334064
-0.17999999999999994,-0.98,-0.393372837420959
-0.16999999999999993,-0.98,-0.39033366643416556
-0.16000000000000003,-0.98,-0.3857540267924462
-0.15000000000000002,-0.98,-0.37965199224122803
-0.14,-0.98,-0.3720516447231306
-0.13,-0.98,-0.3629829793375393
-0.12,-0.98,-0.35248178596365176
-0.10999999999999999,-0.98,-0.3405895080141759
-0.09999999999999998,-0.98,-0.32735307887711385
-0.08999999999999997,-0.98,-0.3128247366911194
-0.07999999999999996,-0.98,-0.2970618181854328
-0.06999999999999995,-0.98,-0.28012653239800367
-0.05999999999999994,-0.98,-0.2620857151648388
-0.04999999999999993,-0.98,-0.24301056534949245
-0.040000000000000036,-0.98,-0.22297636385367836
-0.030000000000000027,-0.98,-0.2020621765179446
-0.020000000000000018,-0.98,-0.18035054208492188
-0.010000000000000009,-0.98,-0.15792714645661532
0.0,-0.98,-0.13488048453129456
0.010000000000000009,-0.98,-0.11130151095456067
0.020000000000000018,-0.98,-0.08728328116291278
0.030000000000000027,-0.98,-0.06292058413645288
0.040000000000000036,-0.98,-0.03830956831008711
0.050000000000000044,-0.98,-0.013547362119578162
0.06000000000000005,-0.98,0.011268309320015588
0.07000000000000006,-0.98,0.03603950989072413
0.08000000000000007,-0.98,0.06066847898077982
0.09000000000000008,-0.98,0.08505801730109
0.10000000000000009,-0.98,0.10911187048642461
0.1100000000000001,-0.98,0.13273510896742124
0.1200000000000001,-0.98,0.1558345026142264
0.13000000000000012,-0.98,0.17831888867322537
0.14000000000000012,-0.98,0.20009953154478216
0.15000000000000013,-0.98,0.22109047298211207
0.15999999999999992,-0.98,0.24120887132921068
0.16999999999999993,-0.98,0.2603753284590242
0.17999999999999994,-0.98,0.2785142031215823
0.18999999999999995,-0.98,0.2955539094654557
0.19999999999999996,-0.98,0.311427199554406
0.20999999999999996,-0.98,0.326071428764269
0.21999999999999997,-0.98,0.33942880301266515
0.22999999999999998,-0.98,0.3514466068458401
0.24,-0.98,0.3620774114824763
0.25,-0.98,0.371279261993426
0.26,-0.98,0.3790158428786473
0.27,-0.98,0.38525662138789474
0.28,-0.98,0.3899769680195322
0.29000000000000004,-0.98,0.39315825372192614
0.30000000000000004,-0.98,0.39478792341380037
0.31000000000000005,-0.98,0.394859545533406
0.32000000000000006,-0.98,0.39337283742095885
0.33000000000000007,-0.98,0.3903336664341654
0.3400000000000001,-0.98,0.3857540267924461
0.3500000000000001,-0.98,0.37965199224122803
0.3600000000000001,-0.98,0.3720516447231308
0.3700000000000001,-0.98,0.3629829793375393
0.3800000000000001,-0.98,0.35248178596365176
0.3900000000000001,-0.98,0.3405895080141759
0.40000000000000013,-0.98,0.32735307887711346
0.4099999999999999,-0.98,0.3128247366911191
0.41999999999999993,-0.98,0.2970618181854328
0.42999999999999994,-0.98,0.28012653239800367
0.43999999999999995,-0.98,0.2620857151648389
0.44999999999999996,-0.98,0.24301056534949256
0.45999999999999996,-0.98,0.2229763638536783
0.47,-0.98,0.20206217651794467
0.48,-0.98,0.18035054208492204
0.49,-0.98,0.15792714645661543
0.5,-0.98,0.13488048453129464
0.51,-0.98,0.11130151095456077
0.52,-0.98,0.0872832811629128
0.53,-0.98,0.06292058413645304
0.54,-0.98,0.0383095683100871
0.55,-0.98,0.013547362119578233
0.56,-0.98,-0.011268309320015504
0.5700000000000001,-0.98,-0.03603950989072399
0.5800000000000001,-0.98,-0.060668478980779775
0.5900000000000001,-0.98,-0.08505801730109003
0.6000000000000001,-0.98,-0.10911187048642457
0.6100000000000001,-0.98,-0.1327351089674212
0.6200000000000001,-0.98,-0.1558345026142262
0.6300000000000001,-0.98,-0.17831888867322526
0.6400000000000001,-0.98,-0.20009953154478233
0.6500000000000001,-0.98,-0.22109047298211196
0.6600000000000001,-0.98,-0.24120887132921065
0.6699999999999999,-0.98,-0.260375328459024
0.6799999999999999,-0.98,-0.27851420312158226
0.69,-0.98,-0.2955539094654556
0.7,-0.98,-0.31142719955440584
0.71,-0.98,-0.3260714287642691
0.72,-0.98,-0.3394288030126653
0.73,-0.98,-0.35144660684584006
0.74,-0.98,-0.3620774114824765
0.75,-0.98,-0.3712792619934258
0.76,-0.98,-0.3790158428786473
0.77,-0.98,-0.3852566213878948
0.78,-0.98,-0.3899769680195323
0.79,-0.98,-0.39315825372192603
0.8,-0.98,-0.3947879234138003
0.81,-0.98,-0.3948595455334063
0.8200000000000001,-0.98,-0.39337283742095897
0.8300000000000001,-0.98,-0.39033366643416534
0.8400000000000001,-0.98,-0.38575402679244597
0.8500000000000001,-0.98,-0.3796519922412281
0.8600000000000001,-0.98,-0.37205164472313046
0.8700000000000001,-0.98,-0.36298297933753926
0.8800000000000001,-0.98,-0.35248178596365165
0.8900000000000001,-0.98,-0.340589508014176
0.9000000000000001,-0.98,-0.3273530788771135
0.9100000000000001,-0.98,-0.3128247366911191
0.9199999999999999,-0.98,-0.2970618181854328
0.9299999999999999,-0.98,-0.28012653239800367
0.94,-0.98,-0.26208571516483914
0.95,-0.98,-0.2430105653494925
0.96,-0.98,-0.22297636385367856
0.97,-0.98,-0.2020621765179446
0.98,-0.98,-0.18035054208492182
0.99,-0.98,-0.15792714645661537
1.0,-0.98,-0.1348804845312946

-1.0,-0.97,-0.11494407803306497
-0.99,-0.97,-0.08910816569493363
-0.98,-0.97,-0.06292058413645293
-0.97,-0.97,-0.03648468377806622
-0.96,-0.97,-0.009904795041074
-0.95,-0.97,0.016714183396874915
-0.94,-0.97,0.043267198588940396
-0.9299999999999999,-0.97,0.06964945791507816
-0.92,-0.97,0.09575684265063575
-0.91,-0.97,0.12148631887539124
-0.9,-0.97,0.14673634410136532
-0.89,-0.97,0.17140726801463013
-0.88,-0.97,0.19540172574957337
-0.87,-0.97,0.2186250221435398
-0.86,-0.97,0.2409855054553775
-0.85,-0.97,0.2623949290729879
-0.84,-0.97,0.28276879978238734
-0.83,-0.97,0.3020267112238223
-0.8200000000000001,-0.97,0.32009266121893587
-0.81,-0.97,0.33689535171664514
-0.8,-0.97,0.3523684701739742
-0.79,-0.97,0.366450951261368
-0.78,-0.97,0.3790872178596483
-0.77,-0.97,0.39022740039751197
-0.76,-0.97,0.3998275336639481
-0.75,-0.97,0.4078497303188373
-0.74,-0.97,0.41426233041697613
-0.73,-0.97,0.419040026355415
-0.72,-0.97,0.4221639627510074
-0.71,-0.97,0.42362181085399
-0.7,-0.97,0.4234078172039285
-0.69,-0.97,0.42152282633599436
-0.6799999999999999,-0.97,0.4179742774479735
-0.6699999999999999,-0.97,0.4127761750411487
-0.6599999999999999,-0.97,0.40594903365093316
-0.6499999999999999,-0.97,0.39751979688536937
-0.64,-0.97,0.3875217310910193
-0.63,-0.97,0.37599429406589174
-0.62,-0.97,0.3629829793375393
-0.61,-0.97,0.34853913662089075
-0.6,-0.97,0.3327197691643845
-0.59,-0.97,0.3155873087841904
-0.5800000000000001,-0.97,0.29720936947435167
-0.5700000000000001,-0.97,0.27765848056524284
-0.56,-0.97,0.25701180048343675
-0.55,-0.97,0.23535081224264492
-0.54,-0.97,0.2127610018674902
-0.53,-0.97,0.1893315210192203
-0.52,-0.97,0.16515483515483165
-0.51,-0.97,0.14032635860815398
-0.5,-0.97,0.11494407803306494
-0.49,-0.97,0.08910816569493357
-0.48,-0.97,0.06292058413645293
-0.47,-0.97,0.03648468377806619
-0.45999999999999996,-0.97,0.00990479504107398
-0.44999999999999996,-0.97,-0.016714183396874954
-0.43999999999999995,-0.97,-0.043267198588940424
-0.42999999999999994,-0.97,-0.06964945791507818
-0.42000000000000004,-0.97,-0.09575684265063576
-0.41000000000000003,-0.97,-0.12148631887539113
-0.4,-0.97,-0.14673634410136516
-0.39,-0.97,-0.17140726801463024
-0.38,-0.97,-0.19540172574957337
-0.37,-0.97,-0.21862502214353985
-0.36,-0.97,-0.24098550545537736
-0.35,-0.97,-0.262394929072988
-0.33999999999999997,-0.97,-0.28276879978238745
-0.32999999999999996,-0.97,-0.3020267112238223
-0.31999999999999995,-0.97,-0.32009266121893565
-0.30999999999999994,-0.97,-0.3368953517166447
-0.29999999999999993,-0.97,-0.352368470173974
-0.29000000000000004,-0.97,-0.366450951261368
-0.28,-0.97,-0.37908721785964794
-0.27,-0.97,-0.3902274003975119
-0.26,-0.97,-0.3998275336639477
-0.25,-0.97,-0.40784973031883737
-0.24,-0.97,-0.414262330416976
-0.22999999999999998,-0.97,-0.4190400263554153
-0.21999999999999997,-0.97,-0.42216396275100765
-0.20999999999999996,-0.97,-0.4236218108539903
-0.19999999999999996,-0.97,-0.42340781720392856
-0.18999999999999995,-0.97,-0.4215228263359945
-0.17999999999999994,-0.97,-0.41797427744797333
-0.16999999999999993,-0.97,-0.41277617504114883
-0.16000000000000003,-0.97,-0.40594903365093316
-0.15000000000000002,-0.97,-0.3975197968853694
-0.14,-0.97,-0.3875217310910195
-0.13,-0.97,-0.3759942940658916
-0.12,-0.97,-0.3629829793375391
-0.10999999999999999,-0.97,-0.34853913662089103
-0.09999999999999998,-0.97,-0.33271976916438484
-0.08999999999999997,-0.97,-0.31558730878419033
-0.07999999999999996,-0.97,-0.2972093694743515
-0.06999999999999995,-0.97,-0.2776584805652427
-0.05999999999999994,-0.97,-0.25701180048343664
-0.04999999999999993,-0.97,-0.235350812242645
-0.040000000000000036,-0.97,-0.2127610018674903
-0.030000000000000027,-0.97,-0.18933152101922024
-0.020000000000000018,-0.97,-0.1651548351548317
-0.010000000000000009,-0.97,-0.14032635860815393
0.0,-0.97,-0.11494407803306492
0.010000000000000009,-0.97,-0.08910816569493363
0.020000000000000018,-0.97,-0.06292058413645286
0.030000000000000027,-0.97,-0.03648468377806626
0.040000000000000036,-0.97,-0.00990479504107392
0.050000000000000044,-0.97,0.01671418339687497
0.06000000000000005,-0.97,0.043267198588940486
0.07000000000000006,-0.97,0.06964945791507818
0.08000000000000007,-0.97,0.09575684265063567
0.09000000000000008,-0.97,0.12148631887539126
0.10000000000000009,-0.97,0.14673634410136535
0.1100000000000001,-0.97,0.1714072680146303
0.1200000000000001,-0.97,0.19540172574957332
0.13000000000000012,-0.97,0.21862502214353968
0.14000000000000012,-0.97,0.24098550545537747
0.15000000000000013,-0.97,0.2623949290729878
0.15999999999999992,-0.97,0.28276879978238745
0.16999999999999993,-0.97,0.3020267112238222
0.17999999999999994,-0.97,0.32009266121893587
0.18999999999999995,-0.97,0.33689535171664486
0.19999999999999996,-0.97,0.352368470173974
0.20999999999999996,-0.97,0.36645095126136784
0.21999999999999997,-0.97,0.37908721785964794
0.22999999999999998,-0.97,0.39022740039751186
0.24,-0.97,0.3998275336639481
0.25,-0.97,0.40784973031883726
0.26,-0.97,0.4142623304169762
0.27,-0.97,0.41904002635541526
0.28,-0.97,0.42216396275100754
0.29000000000000004,-0.97,0.4236218108539903
0.30000000000000004,-0.97,0.42340781720392817
0.31000000000000005,-0.97,0.42152282633599425
0.32000000000000006,-0.97,0.41797427744797316
0.33000000000000007,-0.97,0.41277617504114866
0.3400000000000001,-0.97,0.40594903365093316
0.3500000000000001,-0.97,0.39751979688536965
0.3600000000000001,-0.97,0.3875217310910195
0.3700000000000001,-0.97,0.37599429406589163
0.3800000000000001,-0.97,0.3629829793375391
0.3900000000000001,-0.97,0.34853913662089053
0.40000000000000013,-0.97,0.3327197691643845
0.4099999999999999,-0.97,0.3155873087841903
0.41999999999999993,-0.97,0.2972093694743515
0.42999999999999994,-0.97,0.2776584805652427
0.43999999999999995,-0.97,0.25701180048343675
0.44999999999999996,-0.97,0.23535081224264498
0.45999999999999996,-0.97,0.21276100186749033
0.47,-0.97,0.18933152101922035
0.48,-0.97,0.1651548351548318
0.49,-0.97,0.140326358608154
0.5,-0.97,0.11494407803306501
0.51,-0.97,0.08910816569493361
0.52,-0.97,0.06292058413645304
0.53,-0.97,0.03648468377806626
0.54,-0.97,0.009904795041073996
0.55,-0.97,-0.016714183396874877
0.56,-0.97,-0.04326719858894035
0.5700000000000001,-0.97,-0.06964945791507815
0.5800000000000001,-0.97,-0.09575684265063569
0.5900000000000001,-0.97,-0.12148631887539124
0.6000000000000001,-0.97,-0.14673634410136538
0.6100000000000001,-0.97,-0.17140726801463008