TITLE = "Solution" 
VARIABLES = "x", "y", "sol" 
ZONE STRANDID=1, SOLUTIONTIME= 1.9999999999999793, I= 201, J =201, DATAPACKING=POINT 
-1.0,-1.0,-0.27309766477467545
-0.99,-1.0,-0.27255876891647035
-0.98,-1.0,-0.2709442081176086
-0.97,-1.0,-0.26826035431194106
-0.96,-1.0,-0.2645177994443026
-0.95,-1.0,-0.2597313136689446
-0.94,-1.0,-0.2539197870584856
-0.9299999999999999,-1.0,-0.2471061550534228
-0.92,-1.0,-0.23931730794642797
-0.91,-1.0,-0.23058398475864655
-0.9,-1.0,-0.2209406519268249
-0.89,-1.0,-0.21042536728003072
-0.88,-1.0,-0.19907962984278793
-0.87,-1.0,-0.18694821605738726
-0.86,-1.0,-0.1740790030717238
-0.85,-1.0,-0.1605227797900679
-0.84,-1.0,-0.14633304643246273
-0.83,-1.0,-0.13156580339379845
-0.8200000000000001,-1.0,-0.11627933023583703
-0.81,-1.0,-0.10053395568440752
-0.8,-1.0,-0.08439181953948714
-0.79,-1.0,-0.06791662743779926
-0.78,-1.0,-0.05117339943577018
-0.77,-1.0,-0.03422821340507039
-0.76,-1.0,-0.0171479442534441
-0.75,-1.0,1.700029006457271e-16
-0.74,-1.0,0.017147944253444306
-0.73,-1.0,0.03422821340507053
-0.72,-1.0,0.05117339943577032
-0.71,-1.0,0.06791662743779953
-0.7,-1.0,0.08439181953948724
-0.69,-1.0,0.1005339556844077
-0.6799999999999999,-1.0,0.11627933023583714
-0.6699999999999999,-1.0,0.13156580339379864
-0.6599999999999999,-1.0,0.14633304643246287
-0.6499999999999999,-1.0,0.16052277979006807
-0.64,-1.0,0.17407900307172391
-0.63,-1.0,0.18694821605738737
-0.62,-1.0,0.19907962984278804
-0.61,-1.0,0.21042536728003072
-0.6,-1.0,0.22094065192682483
-0.59,-1.0,0.23058398475864644
-0.5800000000000001,-1.0,0.23931730794642778
-0.5700000000000001,-1.0,0.2471061550534228
-0.56,-1.0,0.2539197870584855
-0.55,-1.0,0.2597313136689447
-0.54,-1.0,0.26451779944430254
-0.53,-1.0,0.26826035431194106
-0.52,-1.0,0.2709442081176084
-0.51,-1.0,0.27255876891647024
-0.5,-1.0,0.2730976647746755
-0.49,-1.0,0.27255876891647024
-0.48,-1.0,0.2709442081176086
-0.47,-1.0,0.26826035431194095
-0.45999999999999996,-1.0,0.2645177994443024
-0.44999999999999996,-1.0,0.25973131366894464
-0.43999999999999995,-1.0,0.25391978705848545
-0.42999999999999994,-1.0,0.2471061550534228
-0.42000000000000004,-1.0,0.2393173079464278
-0.41000000000000003,-1.0,0.23058398475864644
-0.4,-1.0,0.22094065192682497
-0.39,-1.0,0.21042536728003058
-0.38,-1.0,0.199079629842788
-0.37,-1.0,0.18694821605738732
-0.36,-1.0,0.1740790030717238
-0.35,-1.0,0.1605227797900678
-0.33999999999999997,-1.0,0.1463330464324628
-0.32999999999999996,-1.0,0.13156580339379842
-0.31999999999999995,-1.0,0.11627933023583698
-0.30999999999999994,-1.0,0.10053395568440743
-0.29999999999999993,-1.0,0.08439181953948714
-0.29000000000000004,-1.0,0.06791662743779928
-0.28,-1.0,0.05117339943577019
-0.27,-1.0,0.03422821340507046
-0.26,-1.0,0.017147944253444066
-0.25,-1.0,-6.938893903907228e-17
-0.24,-1.0,-0.01714794425344418
-0.22999999999999998,-1.0,-0.03422821340507048
-0.21999999999999997,-1.0,-0.05117339943577032
-0.20999999999999996,-1.0,-0.06791662743779953
-0.19999999999999996,-1.0,-0.08439181953948727
-0.18999999999999995,-1.0,-0.1005339556844076
-0.17999999999999994,-1.0,-0.11627933023583706
-0.16999999999999993,-1.0,-0.13156580339379853
-0.16000000000000003,-1.0,-0.14633304643246275
-0.15000000000000002,-1.0,-0.16052277979006802
-0.14,-1.0,-0.17407900307172386
-0.13,-1.0,-0.18694821605738726
-0.12,-1.0,-0.199079629842788
-0.10999999999999999,-1.0,-0.21042536728003075
-0.09999999999999998,-1.0,-0.220940651926825
-0.08999999999999997,-1.0,-0.23058398475864644
-0.07999999999999996,-1.0,-0.23931730794642803
-0.06999999999999995,-1.0,-0.2471061550534228
-0.05999999999999994,-1.0,-0.25391978705848567
-0.04999999999999993,-1.0,-0.2597313136689448
-0.040000000000000036,-1.0,-0.2645177994443025
-0.030000000000000027,-1.0,-0.26826035431194134
-0.020000000000000018,-1.0,-0.2709442081176087
-0.010000000000000009,-1.0,-0.2725587689164703
0.0,-1.0,-0.2730976647746757
0.010000000000000009,-1.0,-0.27255876891647024
0.020000000000000018,-1.0,-0.2709442081176088
0.030000000000000027,-1.0,-0.26826035431194123
0.040000000000000036,-1.0,-0.2645177994443024
0.050000000000000044,-1.0,-0.2597313136689448
0.06000000000000005,-1.0,-0.25391978705848545
0.07000000000000006,-1.0,-0.24710615505342282
0.08000000000000007,-1.0,-0.23931730794642792
0.09000000000000008,-1.0,-0.23058398475864658
0.10000000000000009,-1.0,-0.22094065192682483
0.1100000000000001,-1.0,-0.21042536728003058
0.1200000000000001,-1.0,-0.19907962984278793
0.13000000000000012,-1.0,-0.18694821605738723
0.14000000000000012,-1.0,-0.1740790030717238
0.15000000000000013,-1.0,-0.16052277979006782
0.15999999999999992,-1.0,-0.1463330464324628
0.16999999999999993,-1.0,-0.13156580339379834
0.17999999999999994,-1.0,-0.11627933023583689
0.18999999999999995,-1.0,-0.1005339556844074
0.19999999999999996,-1.0,-0.08439181953948709
0.20999999999999996,-1.0,-0.06791662743779936
0.21999999999999997,-1.0,-0.051173399435770164
0.22999999999999998,-1.0,-0.03422821340507033
0.24,-1.0,-0.017147944253444028
0.25,-1.0,1.3183898417423734e-16
0.26,-1.0,0.017147944253444215
0.27,-1.0,0.03422821340507046
0.28,-1.0,0.05117339943577037
0.29000000000000004,-1.0,0.06791662743779951
0.30000000000000004,-1.0,0.08439181953948721
0.31000000000000005,-1.0,0.10053395568440764
0.32000000000000006,-1.0,0.11627933023583704
0.33000000000000007,-1.0,0.1315658033937985
0.3400000000000001,-1.0,0.14633304643246275
0.3500000000000001,-1.0,0.16052277979006785
0.3600000000000001,-1.0,0.17407900307172386
0.3700000000000001,-1.0,0.18694821605738737
0.3800000000000001,-1.0,0.19907962984278788
0.3900000000000001,-1.0,0.2104253672800307
0.40000000000000013,-1.0,0.22094065192682505
0.4099999999999999,-1.0,0.23058398475864644
0.41999999999999993,-1.0,0.23931730794642803
0.42999999999999994,-1.0,0.2471061550534227
0.43999999999999995,-1.0,0.2539197870584855
0.44999999999999996,-1.0,0.25973131366894464
0.45999999999999996,-1.0,0.2645177994443025
0.47,-1.0,0.26826035431194106
0.48,-1.0,0.2709442081176087
0.49,-1.0,0.27255876891647024
0.5,-1.0,0.2730976647746755
0.51,-1.0,0.27255876891647024
0.52,-1.0,0.27094420811760855
0.53,-1.0,0.26826035431194106
0.54,-1.0,0.2645177994443025
0.55,-1.0,0.2597313136689446
0.56,-1.0,0.25391978705848534
0.5700000000000001,-1.0,0.24710615505342293
0.5800000000000001,-1.0,0.23931730794642792
0.5900000000000001,-1.0,0.23058398475864655
0.6000000000000001,-1.0,0.22094065192682497
0.6100000000000001,-1.0,0.21042536728003078
0.6200000000000001,-1.0,0.19907962984278801
0.6300000000000001,-1.0,0.1869482160573872
0.6400000000000001,-1.0,0.17407900307172375
0.6500000000000001,-1.0,0.16052277979006802
0.6600000000000001,-1.0,0.14633304643246267
0.6699999999999999,-1.0,0.1315658033937985
0.6799999999999999,-1.0,0.11627933023583703
0.69,-1.0,0.1005339556844076
0.7,-1.0,0.08439181953948713
0.71,-1.0,0.06791662743779926
0.72,-1.0,0.05117339943577017
0.73,-1.0,0.03422821340507043
0.74,-1.0,0.017147944253444167
0.75,-1.0,2.42861286636753e-17
0.76,-1.0,-0.01714794425344429
0.77,-1.0,-0.034228213405070554
0.78,-1.0,-0.05117339943577026
0.79,-1.0,-0.06791662743779939
0.8,-1.0,-0.08439181953948718
0.81,-1.0,-0.10053395568440766
0.8200000000000001,-1.0,-0.11627933023583695
0.8300000000000001,-1.0,-0.13156580339379856
0.8400000000000001,-1.0,-0.14633304643246284
0.8500000000000001,-1.0,-0.16052277979006785
0.8600000000000001,-1.0,-0.17407900307172397
0.8700000000000001,-1.0,-0.18694821605738726
0.8800000000000001,-1.0,-0.19907962984278782
0.8900000000000001,-1.0,-0.21042536728003075
0.9000000000000001,-1.0,-0.22094065192682494
0.9100000000000001,-1.0,-0.23058398475864653
0.9199999999999999,-1.0,-0.23931730794642792
0.9299999999999999,-1.0,-0.24710615505342276
0.94,-1.0,-0.25391978705848556
0.95,-1.0,-0.25973131366894453
0.96,-1.0,-0.2645177994443024
0.97,-1.0,-0.26826035431194106
0.98,-1.0,-0.27094420811760855
0.99,-1.0,-0.27255876891647024
1.0,-1.0,-0.27309766477467545

-1.0,-0.99,-0.2725587689164704
-0.99,-0.99,-0.26915501543191445
-0.98,-0.99,-0.2646890300666789
-0.97,-0.99,-0.25917843802468543
-0.96,-0.99,-0.2526449870951736
-0.95,-0.99,-0.24511446182411267
-0.94,-0.99,-0.23661658175437755
-0.9299999999999999,-0.99,-0.22718488413629168
-0.92,-0.99,-0.2168565915714205
-0.91,-0.99,-0.2056724651119698
-0.9,-0.99,-0.19367664339553364
-0.89,-0.99,-0.180916468450057
-0.88,-0.99,-0.1674422988564803
-0.87,-0.99,-0.153307311006427
-0.86,-0.99,-0.13856728923927952
-0.85,-0.99,-0.12328040568687722
-0.84,-0.99,-0.10750699069468891
-0.83,-0.99,-0.09130929472550078
-0.8200000000000001,-0.99,-0.07475124268527983
-0.81,-0.99,-0.057898181640774385
-0.8,-0.99,-0.04081662292449585
-0.79,-0.99,-0.023573979644875703
-0.78,-0.99,-0.006238300637524018
-0.77,-0.99,0.011121998092435435
-0.76,-0.99,0.02843840337708184
-0.75,-0.99,0.04564257527586942
-0.74,-0.99,0.06266661678215218
-0.73,-0.99,0.07944334178164986
-0.72,-0.99,0.09590654020534589
-0.71,-0.99,0.11199123933038167
-0.7,-0.99,0.12763396019771114
-0.69,-0.99,0.14277296813454998
-0.6799999999999999,-0.99,0.15734851639292638
-0.6699999999999999,-0.99,0.17130308194279908
-0.6599999999999999,-0.99,0.18458159248917763
-0.6499999999999999,-0.99,0.1971316438173094
-0.64,-0.99,0.20890370660817575
-0.63,-0.99,0.21985132190808485
-0.62,-0.99,0.22993128448093764
-0.61,-0.99,0.23910381331955585
-0.6,-0.99,0.2473327086431435
-0.59,-0.99,0.2545854947612829
-0.5800000000000001,-0.99,0.26083354824064886
-0.5700000000000001,-0.99,0.26605221086862174
-0.56,-0.99,0.27022088696798985
-0.55,-0.99,0.27332312467867553
-0.54,-0.99,0.2753466808857122
-0.53,-0.99,0.27628356953722555
-0.52,-0.99,0.2761300931617324
-0.51,-0.99,0.27488685746036967
-0.5,-0.99,0.27255876891647024
-0.49,-0.99,0.26915501543191445
-0.48,-0.99,0.26468903006667877
-0.47,-0.99,0.2591784380246853
-0.45999999999999996,-0.99,0.2526449870951735
-0.44999999999999996,-0.99,0.24511446182411256
-0.43999999999999995,-0.99,0.23661658175437755
-0.42999999999999994,-0.99,0.22718488413629148
-0.42000000000000004,-0.99,0.21685659157142045
-0.41000000000000003,-0.99,0.20567246511196985
-0.4,-0.99,0.19367664339553353
-0.39,-0.99,0.18091646845005702
-0.38,-0.99,0.1674422988564804
-0.37,-0.99,0.15330731100642697
-0.36,-0.99,0.1385672892392794
-0.35,-0.99,0.1232804056868773
-0.33999999999999997,-0.99,0.10750699069468889
-0.32999999999999996,-0.99,0.09130929472550076
-0.31999999999999995,-0.99,0.07475124268527975
-0.30999999999999994,-0.99,0.05789818164077437
-0.29999999999999993,-0.99,0.040816622924495845
-0.29000000000000004,-0.99,0.023573979644875738
-0.28,-0.99,0.006238300637524109
-0.27,-0.99,-0.011121998092435484
-0.26,-0.99,-0.028438403377081735
-0.25,-0.99,-0.0456425752758693
-0.24,-0.99,-0.06266661678215216
-0.22999999999999998,-0.99,-0.07944334178164986
-0.21999999999999997,-0.99,-0.09590654020534589
-0.20999999999999996,-0.99,-0.11199123933038174
-0.19999999999999996,-0.99,-0.127633960197711
-0.18999999999999995,-0.99,-0.14277296813454982
-0.17999999999999994,-0.99,-0.15734851639292627
-0.16999999999999993,-0.99,-0.17130308194279897
-0.16000000000000003,-0.99,-0.18458159248917752
-0.15000000000000002,-0.99,-0.19713164381730935
-0.14,-0.99,-0.2089037066081756
-0.13,-0.99,-0.21985132190808473
-0.12,-0.99,-0.22993128448093764
-0.10999999999999999,-0.99,-0.23910381331955596
-0.09999999999999998,-0.99,-0.2473327086431435
-0.08999999999999997,-0.99,-0.2545854947612831
-0.07999999999999996,-0.99,-0.2608335482406488
-0.06999999999999995,-0.99,-0.2660522108686219
-0.05999999999999994,-0.99,-0.27022088696798996
-0.04999999999999993,-0.99,-0.2733231246786754
-0.040000000000000036,-0.99,-0.2753466808857124
-0.030000000000000027,-0.99,-0.276283569537226
-0.020000000000000018,-0.99,-0.27613009316173254
-0.010000000000000009,-0.99,-0.2748868574603698
0.0,-0.99,-0.2725587689164702
0.010000000000000009,-0.99,-0.26915501543191467
0.020000000000000018,-0.99,-0.26468903006667893
0.030000000000000027,-0.99,-0.2591784380246852
0.040000000000000036,-0.99,-0.2526449870951737
0.050000000000000044,-0.99,-0.2451144618241125
0.06000000000000005,-0.99,-0.2366165817543776
0.07000000000000006,-0.99,-0.2271848841362916
0.08000000000000007,-0.99,-0.2168565915714205
0.09000000000000008,-0.99,-0.2056724651119697
0.10000000000000009,-0.99,-0.1936766433955335
0.1100000000000001,-0.99,-0.18091646845005693
0.1200000000000001,-0.99,-0.16744229885648027
0.13000000000000012,-0.99,-0.153307311006427
0.14000000000000012,-0.99,-0.13856728923927944
0.15000000000000013,-0.99,-0.12328040568687733
0.15999999999999992,-0.99,-0.1075069906946888
0.16999999999999993,-0.99,-0.09130929472550067
0.17999999999999994,-0.99,-0.07475124268527969
0.18999999999999995,-0.99,-0.05789818164077433
0.19999999999999996,-0.99,-0.04081662292449592
0.20999999999999996,-0.99,-0.023573979644875696
0.21999999999999997,-0.99,-0.006238300637523973
0.22999999999999998,-0.99,0.011121998092435505
0.24,-0.99,0.028438403377081783
0.25,-0.99,0.04564257527586932
0.26,-0.99,0.06266661678215212
0.27,-0.99,0.07944334178164991
0.28,-0.99,0.09590654020534589
0.29000000000000004,-0.99,0.11199123933038169
0.30000000000000004,-0.99,0.12763396019771106
0.31000000000000005,-0.99,0.14277296813454982
0.32000000000000006,-0.99,0.15734851639292619
0.33000000000000007,-0.99,0.17130308194279895
0.3400000000000001,-0.99,0.18458159248917738
0.3500000000000001,-0.99,0.19713164381730938
0.3600000000000001,-0.99,0.2089037066081757
0.3700000000000001,-0.99,0.2198513219080847
0.3800000000000001,-0.99,0.22993128448093764
0.3900000000000001,-0.99,0.23910381331955605
0.40000000000000013,-0.99,0.2473327086431435
0.4099999999999999,-0.99,0.2545854947612832
0.41999999999999993,-0.99,0.2608335482406487
0.42999999999999994,-0.99,0.2660522108686218
0.43999999999999995,-0.99,0.27022088696798974
0.44999999999999996,-0.99,0.2733231246786754
0.45999999999999996,-0.99,0.2753466808857121
0.47,-0.99,0.27628356953722594
0.48,-0.99,0.2761300931617326
0.49,-0.99,0.27488685746036967
0.5,-0.99,0.2725587689164702
0.51,-0.99,0.26915501543191434
0.52,-0.99,0.2646890300666788
0.53,-0.99,0.25917843802468526
0.54,-0.99,0.2526449870951736
0.55,-0.99,0.2451144618241125
0.56,-0.99,0.23661658175437772
0.5700000000000001,-0.99,0.22718488413629162
0.5800000000000001,-0.99,0.2168565915714206
0.5900000000000001,-0.99,0.20567246511196982
0.6000000000000001,-0.99,0.19367664339553373
0.6100000000000001,-0.99,0.18091646845005702
0.6200000000000001,-0.99,0.16744229885648032
0.6300000000000001,-0.99,0.15330731100642697
0.6400000000000001,-0.99,0.13856728923927963
0.6500000000000001,-0.99,0.1232804056868772
0.6600000000000001,-0.99,0.10750699069468894
0.6699999999999999,-0.99,0.09130929472550078
0.6799999999999999,-0.99,0.07475124268527988
0.69,-0.99,0.05789818164077436
0.7,-0.99,0.04081662292449584
0.71,-0.99,0.023573979644875703
0.72,-0.99,0.0062383006375240566
0.73,-0.99,-0.011121998092435373
0.74,-0.99,-0.02843840337708163
0.75,-0.99,-0.0456425752758694
0.76,-0.99,-0.06266661678215221
0.77,-0.99,-0.0794433417816498
0.78,-0.99,-0.09590654020534575
0.79,-0.99,-0.11199123933038166
0.8,-0.99,-0.12763396019771112
0.81,-0.99,-0.1427729681345497
0.8200000000000001,-0.99,-0.15734851639292627
0.8300000000000001,-0.99,-0.17130308194279908
0.8400000000000001,-0.99,-0.1845815924891774
0.8500000000000001,-0.99,-0.19713164381730947
0.8600000000000001,-0.99,-0.20890370660817562
0.8700000000000001,-0.99,-0.21985132190808468
0.8800000000000001,-0.99,-0.22993128448093766
0.8900000000000001,-0.99,-0.239103813319556
0.9000000000000001,-0.99,-0.24733270864314358
0.9100000000000001,-0.99,-0.2545854947612831
0.9199999999999999,-0.99,-0.26083354824064875
0.9299999999999999,-0.99,-0.2660522108686218
0.94,-0.99,-0.27022088696798974
0.95,-0.99,-0.27332312467867537
0.96,-0.99,-0.2753466808857122
0.97,-0.99,-0.27628356953722577
0.98,-0.99,-0.2761300931617325
0.99,-0.99,-0.27488685746036956
1.0,-0.99,-0.2725587689164704

-1.0,-0.98,-0.2709442081176086
-0.99,-0.98,-0.26468903006667877
-0.98,-0.98,-0.25738924533899127
-0.97,-0.98,-0.24907366284991128
-0.96,-0.98,-0.2397751004044955
-0.95,-0.98,-0.22953025518060646
-0.94,-0.98,-0.2183795589019188
-0.9299999999999999,-0.98,-0.2063670182723753
-0.92,-0.98,-0.19354004130183353
-0.91,-0.98,-0.17994925020830765
-0.9,-0.98,-0.16564828163520187
-0.89,-0.98,-0.15069357497198327
-0.88,-0.98,-0.135144149613696
-0.87,-0.98,-0.11906137203837258
-0.86,-0.98,-0.10250871362158043
-0.85,-0.98,-0.08555150014390056
-0.84,-0.98,-0.06825665397991529
-0.83,-0.98,-0.050692429986170275
-0.8200000000000001,-0.98,-0.03292814613043816
-0.81,-0.98,-0.015033909925368147
-0.8,-0.98,0.0029196582538370645
-0.79,-0.98,0.020861703875779417
-0.78,-0.98,0.0387214178833299
-0.77,-0.98,0.05642831614462822
-0.76,-0.98,0.07391251762174895
-0.75,-0.98,0.09110502015923383
-0.74,-0.98,0.10793797280407497
-0.73,-0.98,0.12434494358242754
-0.72,-0.98,0.14026118167626123
-0.71,-0.98,0.15562387296525754
-0.7,-0.98,0.17037238792544446
-0.69,-0.98,0.1844485209062298
-0.6799999999999999,-0.98,0.19779671984151187
-0.6699999999999999,-0.98,0.21036430548830537
-0.6599999999999999,-0.98,0.22210167932764566
-0.6499999999999999,-0.98,0.2329625193072853
-0.64,-0.98,0.2429039626536703
-0.63,-0.98,0.251886775031726
-0.62,-0.98,0.25987550538485266
-0.61,-0.98,0.2668386258440504
-0.6,-0.98,0.27274865615401395
-0.59,-0.98,0.27758227212514597
-0.5800000000000001,-0.98,0.2813203976834769
-0.5700000000000001,-0.98,0.2839482801552159
-0.56,-0.98,0.2854555484888118
-0.55,-0.98,0.28583625418475733
-0.54,-0.98,0.28508889477159854
-0.53,-0.98,0.28321641973550343
-0.52,-0.98,0.2802262188799869
-0.51,-0.98,0.2761300931617325
-0.5,-0.98,0.27094420811760866
-0.49,-0.98,0.26468903006667865
-0.48,-0.98,0.25738924533899116
-0.47,-0.98,0.24907366284991128
-0.45999999999999996,-0.98,0.23977510040449534
-0.44999999999999996,-0.98,0.22953025518060652
-0.43999999999999995,-0.98,0.21837955890191857
-0.42999999999999994,-0.98,0.20636701827237527
-0.42000000000000004,-0.98,0.19354004130183355
-0.41000000000000003,-0.98,0.17994925020830754
-0.4,-0.98,0.1656482816352019
-0.39,-0.98,0.15069357497198332
-0.38,-0.98,0.13514414961369597
-0.37,-0.98,0.11906137203837251
-0.36,-0.98,0.10250871362158048
-0.35,-0.98,0.08555150014390052
-0.33999999999999997,-0.98,0.06825665397991525
-0.32999999999999996,-0.98,0.0506924299861702
-0.31999999999999995,-0.98,0.032928146130438145
-0.30999999999999994,-0.98,0.01503390992536813
-0.29999999999999993,-0.98,-0.0029196582538370194
-0.29000000000000004,-0.98,-0.020861703875779306
-0.28,-0.98,-0.038721417883329966
-0.27,-0.98,-0.05642831614462809
-0.26,-0.98,-0.07391251762174886
-0.25,-0.98,-0.09110502015923383
-0.24,-0.98,-0.10793797280407495
-0.22999999999999998,-0.98,-0.12434494358242754
-0.21999999999999997,-0.98,-0.14026118167626128
-0.20999999999999996,-0.98,-0.15562387296525734
-0.19999999999999996,-0.98,-0.1703723879254443
-0.18999999999999995,-0.98,-0.1844485209062297
-0.17999999999999994,-0.98,-0.19779671984151176
-0.16999999999999993,-0.98,-0.21036430548830526
-0.16000000000000003,-0.98,-0.22210167932764557
-0.15000000000000002,-0.98,-0.23296251930728512
-0.14,-0.98,-0.24290396265367026
-0.13,-0.98,-0.251886775031726
-0.12,-0.98,-0.25987550538485277
-0.10999999999999999,-0.98,-0.26683862584405044
-0.09999999999999998,-0.98,-0.2727486561540142
-0.08999999999999997,-0.98,-0.27758227212514586
-0.07999999999999996,-0.98,-0.28132039768347705
-0.06999999999999995,-0.98,-0.28394828015521595
-0.05999999999999994,-0.98,-0.28545554848881177
-0.04999999999999993,-0.98,-0.28583625418475755
-0.040000000000000036,-0.98,-0.2850888947715989
-0.030000000000000027,-0.98,-0.2832164197355036
-0.020000000000000018,-0.98,-0.2802262188799869
-0.010000000000000009,-0.98,-0.27613009316173254
0.0,-0.98,-0.2709442081176089
0.010000000000000009,-0.98,-0.264689030066679
0.020000000000000018,-0.98,-0.2573892453389911
0.030000000000000027,-0.98,-0.24907366284991136
0.040000000000000036,-0.98,-0.23977510040449534
0.050000000000000044,-0.98,-0.22953025518060652
0.06000000000000005,-0.98,-0.21837955890191868
0.07000000000000006,-0.98,-0.20636701827237533
0.08000000000000007,-0.98,-0.19354004130183342
0.09000000000000008,-0.98,-0.17994925020830752
0.10000000000000009,-0.98,-0.1656482816352018
0.1100000000000001,-0.98,-0.15069357497198316
0.1200000000000001,-0.98,-0.13514414961369603
0.13000000000000012,-0.98,-0.1190613720383725
0.14000000000000012,-0.98,-0.10250871362158052
0.15000000000000013,-0.98,-0.08555150014390046
0.15999999999999992,-0.98,-0.06825665397991518
0.16999999999999993,-0.98,-0.05069242998617016
0.17999999999999994,-0.98,-0.03292814613043811
0.18999999999999995,-0.98,-0.01503390992536821
0.19999999999999996,-0.98,0.002919658253837075
0.20999999999999996,-0.98,0.020861703875779458
0.21999999999999997,-0.98,0.038721417883329966
0.22999999999999998,-0.98,0.056428316144628135
0.24,-0.98,0.07391251762174886
0.25,-0.98,0.09110502015923379
0.26,-0.98,0.10793797280407501
0.27,-0.98,0.12434494358242754
0.28,-0.98,0.14026118167626125
0.29000000000000004,-0.98,0.15562387296525743
0.30000000000000004,-0.98,0.1703723879254443
0.31000000000000005,-0.98,0.1844485209062296
0.32000000000000006,-0.98,0.19779671984151173
0.33000000000000007,-0.98,0.2103643054883051
0.3400000000000001,-0.98,0.22210167932764563
0.3500000000000001,-0.98,0.2329625193072853
0.3600000000000001,-0.98,0.24290396265367026
0.3700000000000001,-0.98,0.251886775031726
0.3800000000000001,-0.98,0.2598755053848528
0.3900000000000001,-0.98,0.26683862584405044
0.40000000000000013,-0.98,0.2727486561540142
0.4099999999999999,-0.98,0.27758227212514575
0.41999999999999993,-0.98,0.2813203976834769
0.42999999999999994,-0.98,0.2839482801552158
0.43999999999999995,-0.98,0.28545554848881166
0.44999999999999996,-0.98,0.28583625418475733
0.45999999999999996,-0.98,0.28508889477159893
0.47,-0.98,0.2832164197355037
0.48,-0.98,0.28022621887998694
0.49,-0.98,0.2761300931617324
0.5,-0.98,0.27094420811760855
0.51,-0.98,0.26468903006667877
0.52,-0.98,0.25738924533899116
0.53,-0.98,0.24907366284991123
0.54,-0.98,0.23977510040449534
0.55,-0.98,0.22953025518060663
0.56,-0.98,0.21837955890191865
0.5700000000000001,-0.98,0.2063670182723754
0.5800000000000001,-0.98,0.19354004130183355
0.5900000000000001,-0.98,0.17994925020830774
0.6000000000000001,-0.98,0.1656482816352019
0.6100000000000001,-0.98,0.15069357497198327
0.6200000000000001,-0.98,0.135144149613696
0.6300000000000001,-0.98,0.11906137203837269
0.6400000000000001,-0.98,0.10250871362158041
0.6500000000000001,-0.98,0.08555150014390056
0.6600000000000001,-0.98,0.06825665397991529
0.6699999999999999,-0.98,0.05069242998617034
0.6799999999999999,-0.98,0.03292814613043814
0.69,-0.98,0.015033909925368134
0.7,-0.98,-0.002919658253837068
0.71,-0.98,-0.020861703875779396
0.72,-0.98,-0.038721417883329834
0.73,-0.98,-0.056428316144627996
0.74,-0.98,-0.07391251762174895
0.75,-0.98,-0.09110502015923387
0.76,-0.98,-0.10793797280407492
0.77,-0.98,-0.12434494358242741
0.78,-0.98,-0.14026118167626117
0.79,-0.98,-0.15562387296525748
0.8,-0.98,-0.17037238792544418
0.81,-0.98,-0.1844485209062297
0.8200000000000001,-0.98,-0.19779671984151187
0.8300000000000001,-0.98,-0.2103643054883051
0.8400000000000001,-0.98,-0.22210167932764568
0.8500000000000001,-0.98,-0.23296251930728518
0.8600000000000001,-0.98,-0.24290396265367012
0.8700000000000001,-0.98,-0.251886775031726
0.8800000000000001,-0.98,-0.25987550538485277
0.8900000000000001,-0.98,-0.2668386258440505
0.9000000000000001,-0.98,-0.2727486561540141
0.9100000000000001,-0.98,-0.2775822721251458
0.9199999999999999,-0.98,-0.28132039768347694
0.9299999999999999,-0.98,-0.2839482801552157
0.94,-0.98,-0.2854555484888116
0.95,-0.98,-0.2858362541847572
0.96,-0.98,-0.2850888947715987
0.97,-0.98,-0.2832164197355035
0.98,-0.98,-0.2802262188799868
0.99,-0.98,-0.27613009316173265
1.0,-0.98,-0.2709442081176086

-1.0,-0.97,-0.26826035431194095
-0.99,-0.97,-0.25917843802468543
-0.98,-0.97,-0.24907366284991128
-0.97,-0.97,-0.23798590771880132
-0.96,-0.97,-0.2259589309353442
-0.95,-0.97,-0.21304019748230163
-0.94,-0.97,-0.19928069169860424
-0.9299999999999999,-0.97,-0.18473471606746059
-0.92,-0.97,-0.16945967690926245
-0.91,-0.97,-0.15351585782506555
-0.9,-0.97,-0.13696618178475725
-0.89,-0.97,-0.11987596279884088
-0.88,-0.97,-0.1023126481538755
-0.87,-0.97,-0.08434555222884944
-0.86,-0.97,-0.0660455829429936
-0.85,-0.97,-0.047484961914618484
-0.84,-0.97,-0.028736939435381904
-0.83,-0.97,-0.009875505384852662
-0.8200000000000001,-0.97,0.009024902773741399
-0.81,-0.97,0.027889693764173287
-0.8,-0.97,0.04664441687490712
-0.79,-0.97,0.06521505578204266
-0.78,-0.97,0.08352832065793164
-0.77,-0.97,0.10151193741264342
-0.76,-0.97,0.1190949329267802
-0.75,-0.97,0.1362079151499545
-0.74,-0.97,0.15278334695950915
-0.73,-0.97,0.16875581269868634
-0.72,-0.97,0.18406227634233918
-0.71,-0.97,0.198642330271324
-0.7,-0.97,0.21243843367377613
-0.69,-0.97,0.22539613963240634
-0.6799999999999999,-0.97,0.2374643100016088
-0.6699999999999999,-0.97,0.24859531722635841
-0.6599999999999999,-0.97,0.258745232306413
-0.6499999999999999,-0.97,0.2678739981640066
-0.64,-0.97,0.27594558773083555
-0.63,-0.97,0.28292814613043815
-0.62,-0.97,0.2887941163948388
-0.61,-0.97,0.29352034821931083
-0.6,-0.97,0.29708818932605285
-0.59,-0.97,0.2994835590762079
-0.5800000000000001,-0.97,0.30069700403971306
-0.5700000000000001,-0.97,0.30072373530366703
-0.56,-0.97,0.2995636473719834
-0.55,-0.97,0.2972213185817349
-0.54,-0.97,0.29370599303454864
-0.53,-0.97,0.28903154411435983
-0.52,-0.97,0.2832164197355036
-0.51,-0.97,0.2762835695372259
-0.5,-0.97,0.268260354311941
-0.49,-0.97,0.2591784380246853
-0.48,-0.97,0.2490736628499113
-0.47,-0.97,0.23798590771880124
-0.45999999999999996,-0.97,0.22595893093534425
-0.44999999999999996,-0.97,0.21304019748230135
-0.43999999999999995,-0.97,0.19928069169860418
-0.42999999999999994,-0.97,0.18473471606746064
-0.42000000000000004,-0.97,0.16945967690926236
-0.41000000000000003,-0.97,0.1535158578250656
-0.4,-0.97,0.13696618178475728
-0.39,-0.97,0.11987596279884082
-0.38,-0.97,0.10231264815387545
-0.37,-0.97,0.08434555222884947
-0.36,-0.97,0.06604558294299358
-0.35,-0.97,0.04748496191461844
-0.33999999999999997,-0.97,0.02873693943538184
-0.32999999999999996,-0.97,0.009875505384852655
-0.31999999999999995,-0.97,-0.009024902773741433
-0.30999999999999994,-0.97,-0.027889693764173242
-0.29999999999999993,-0.97,-0.046644416874907
-0.29000000000000004,-0.97,-0.06521505578204276
-0.28,-0.97,-0.08352832065793153
-0.27,-0.97,-0.10151193741264332
-0.26,-0.97,-0.11909493292678015
-0.25,-0.97,-0.13620791514995453
-0.24,-0.97,-0.15278334695950924
-0.22999999999999998,-0.97,-0.1687558126986864
-0.21999999999999997,-0.97,-0.18406227634233902
-0.20999999999999996,-0.97,-0.1986423302713238
-0.19999999999999996,-0.97,-0.21243843367377607
-0.18999999999999995,-0.97,-0.22539613963240626
-0.17999999999999994,-0.97,-0.23746431000160867
-0.16999999999999993,-0.97,-0.2485953172263584
-0.16000000000000003,-0.97,-0.25874523230641283
-0.15000000000000002,-0.97,-0.2678739981640065
-0.14,-0.97,-0.27594558773083555
-0.13,-0.97,-0.28292814613043826
-0.12,-0.97,-0.2887941163948389
-0.10999999999999999,-0.97,-0.29352034821931094
-0.09999999999999998,-0.97,-0.29708818932605285
-0.08999999999999997,-0.97,-0.29948355907620805
-0.07999999999999996,-0.97,-0.30069700403971295
-0.06999999999999995,-0.97,-0.3007237353036669
-0.05999999999999994,-0.97,-0.2995636473719835
-0.04999999999999993,-0.97,-0.29722131858173506
-0.040000000000000036,-0.97,-0.2937059930345488
-0.030000000000000027,-0.97,-0.2890315441143599
-0.020000000000000018,-0.97,-0.2832164197355036
-0.010000000000000009,-0.97,-0.2762835695372261
0.0,-0.97,-0.2682603543119413
0.010000000000000009,-0.97,-0.2591784380246853
0.020000000000000018,-0.97,-0.24907366284991134
0.030000000000000027,-0.97,-0.23798590771880118
0.040000000000000036,-0.97,-0.22595893093534422
0.050000000000000044,-0.97,-0.21304019748230146
0.06000000000000005,-0.97,-0.19928069169860424
0.07000000000000006,-0.97,-0.1847347160674605
0.08000000000000007,-0.97,-0.16945967690926234
0.09000000000000008,-0.97,-0.15351585782506544
0.10000000000000009,-0.97,-0.1369661817847572
0.1100000000000001,-0.97,-0.11987596279884088
0.1200000000000001,-0.97,-0.10231264815387542
0.13000000000000012,-0.97,-0.08434555222884951
0.14000000000000012,-0.97,-0.06604558294299354
0.15000000000000013,-0.97,-0.047484961914618394
0.15999999999999992,-0.97,-0.02873693943538179
0.16999999999999993,-0.97,-0.009875505384852616
0.17999999999999994,-0.97,0.00902490277374135
0.18999999999999995,-0.97,0.027889693764173308
0.19999999999999996,-0.97,0.04664441687490717
0.20999999999999996,-0.97,0.06521505578204274
0.21999999999999997,-0.97,0.08352832065793155
0.22999999999999998,-0.97,0.10151193741264333
0.24,-0.97,0.11909493292678014
0.25,-0.97,0.13620791514995453
0.26,-0.97,0.15278334695950924
0.27,-0.97,0.16875581269868642
0.28,-0.97,0.1840622763423391
0.29000000000000004,-0.97,0.19864233027132383
0.30000000000000004,-0.97,0.21243843367377593
0.31000000000000005,-0.97,0.22539613963240618
0.32000000000000006,-0.97,0.23746431000160856
0.33000000000000007,-0.97,0.24859531722635836
0.3400000000000001,-0.97,0.25874523230641305
0.3500000000000001,-0.97,0.2678739981640065
0.3600000000000001,-0.97,0.2759455877308356
0.3700000000000001,-0.97,0.28292814613043826
0.3800000000000001,-0.97,0.2887941163948388
0.3900000000000001,-0.97,0.29352034821931094
0.40000000000000013,-0.97,0.29708818932605263
0.4099999999999999,-0.97,0.2994835590762079
0.41999999999999993,-0.97,0.3006970040397129
0.42999999999999994,-0.97,0.30072373530366675
0.43999999999999995,-0.97,0.2995636473719833
0.44999999999999996,-0.97,0.2972213185817353
0.45999999999999996,-0.97,0.29370599303454886
0.47,-0.97,0.28903154411435983
0.48,-0.97,0.28321641973550343
0.49,-0.97,0.27628356953722566
0.5,-0.97,0.26826035431194106
0.51,-0.97,0.25917843802468543
0.52,-0.97,0.24907366284991125
0.53,-0.97,0.23798590771880118
0.54,-0.97,0.22595893093534433
0.55,-0.97,0.21304019748230146
0.56,-0.97,0.19928069169860435
0.5700000000000001,-0.97,0.1847347160674606
0.5800000000000001,-0.97,0.16945967690926256