TITLE = "Solution" 
VARIABLES = "x", "y", "sol" 
ZONE STRANDID=1, SOLUTIONTIME= 0.9000000000000007, I= 201, J =201, DATAPACKING=POINT 
-1.0,-1.0,0.1958890334442549
-0.99,-1.0,0.22536115756330183
-0.98,-1.0,0.2539438841511658
-0.97,-1.0,0.28152441024421015
-0.96,-1.0,0.30799388810628936
-0.95,-1.0,0.3332478548010364
-0.94,-1.0,0.3571866444593462
-0.9299999999999999,-1.0,0.37971578161503095
-0.92,-1.0,0.4007463540563204
-0.91,-1.0,0.42019536372174354
-0.9,-1.0,0.43798605425555814
-0.89,-1.0,0.45404821393002104
-0.88,-1.0,0.4683184527389997
-0.87,-1.0,0.4807404525693666
-0.86,-1.0,0.49126518946286335
-0.85,-1.0,0.499851127091267
-0.84,-1.0,0.506464380681299
-0.83,-1.0,0.5110788507423483
-0.8200000000000001,-1.0,0.5136763260692343
-0.81,-1.0,0.5142465556135156
-0.8,-1.0,0.5127872889396942
-0.79,-1.0,0.5093042851066559
-0.78,-1.0,0.5038112899392967
-0.77,-1.0,0.49632998178003157
-0.76,-1.0,0.4868898859342805
-0.75,-1.0,0.47552825814757693
-0.74,-1.0,0.4622899375741608
-0.73,-1.0,0.4472271698173228
-0.72,-1.0,0.4303994007398739
-0.71,-1.0,0.4118730418584877
-0.7,-1.0,0.3917212082477799
-0.69,-1.0,0.370023429988515
-0.6799999999999999,-1.0,0.346865338298711
-0.6699999999999999,-1.0,0.32233832758634084
-0.6599999999999999,-1.0,0.2965391947573617
-0.6499999999999999,-1.0,0.26956975720254667
-0.64,-1.0,0.2415364509707609
-0.63,-1.0,0.21254991071450113
-0.62,-1.0,0.18272453306546893
-0.61,-1.0,0.15217802516332568
-0.6,-1.0,0.12103094011938931
-0.59,-1.0,0.08940620124857862
-0.5800000000000001,-1.0,0.057428616947247914
-0.5700000000000001,-1.0,0.02522438813146575
-0.56,-1.0,-0.007079389820344551
-0.55,-1.0,-0.03935522865479943
-0.54,-1.0,-0.0714757503814476
-0.53,-1.0,-0.10331418997550444
-0.52,-1.0,-0.13474489566149161
-0.51,-1.0,-0.16564382480339018
-0.5,-1.0,-0.19588903344425487
-0.49,-1.0,-0.22536115756330188
-0.48,-1.0,-0.25394388415116553
-0.47,-1.0,-0.28152441024421015
-0.45999999999999996,-1.0,-0.30799388810628925
-0.44999999999999996,-1.0,-0.33324785480103614
-0.43999999999999995,-1.0,-0.3571866444593462
-0.42999999999999994,-1.0,-0.37971578161503117
-0.42000000000000004,-1.0,-0.4007463540563204
-0.41000000000000003,-1.0,-0.4201953637217437
-0.4,-1.0,-0.4379860542555585
-0.39,-1.0,-0.45404821393002115
-0.38,-1.0,-0.46831845273899947
-0.37,-1.0,-0.48074045256936665
-0.36,-1.0,-0.4912651894628635
-0.35,-1.0,-0.49985112709126694
-0.33999999999999997,-1.0,-0.506464380681299
-0.32999999999999996,-1.0,-0.511078850742348
-0.31999999999999995,-1.0,-0.5136763260692347
-0.30999999999999994,-1.0,-0.5142465556135156
-0.29999999999999993,-1.0,-0.5127872889396944
-0.29000000000000004,-1.0,-0.5093042851066558
-0.28,-1.0,-0.5038112899392967
-0.27,-1.0,-0.4963299817800314
-0.26,-1.0,-0.4868898859342806
-0.25,-1.0,-0.4755282581475769
-0.24,-1.0,-0.4622899375741609
-0.22999999999999998,-1.0,-0.44722716981732225
-0.21999999999999997,-1.0,-0.4303994007398739
-0.20999999999999996,-1.0,-0.41187304185848733
-0.19999999999999996,-1.0,-0.3917212082477798
-0.18999999999999995,-1.0,-0.3700234299885151
-0.17999999999999994,-1.0,-0.34686533829871097
-0.16999999999999993,-1.0,-0.32233832758634096
-0.16000000000000003,-1.0,-0.2965391947573617
-0.15000000000000002,-1.0,-0.2695697572025467
-0.14,-1.0,-0.24153645097076076
-0.13,-1.0,-0.21254991071450113
-0.12,-1.0,-0.1827245330654687
-0.10999999999999999,-1.0,-0.1521780251633256
-0.09999999999999998,-1.0,-0.12103094011938934
-0.08999999999999997,-1.0,-0.08940620124857862
-0.07999999999999996,-1.0,-0.057428616947247824
-0.06999999999999995,-1.0,-0.025224388131465714
-0.05999999999999994,-1.0,0.007079389820344558
-0.04999999999999993,-1.0,0.039355228654799485
-0.040000000000000036,-1.0,0.07147575038144764
-0.030000000000000027,-1.0,0.1033141899755045
-0.020000000000000018,-1.0,0.13474489566149161
-0.010000000000000009,-1.0,0.16564382480339007
0.0,-1.0,0.1958890334442548
0.010000000000000009,-1.0,0.22536115756330172
0.020000000000000018,-1.0,0.25394388415116564
0.030000000000000027,-1.0,0.28152441024420993
0.040000000000000036,-1.0,0.30799388810628925
0.050000000000000044,-1.0,0.3332478548010362
0.06000000000000005,-1.0,0.35718664445934634
0.07000000000000006,-1.0,0.37971578161503095
0.08000000000000007,-1.0,0.4007463540563206
0.09000000000000008,-1.0,0.42019536372174365
0.10000000000000009,-1.0,0.4379860542555582
0.1100000000000001,-1.0,0.45404821393002115
0.1200000000000001,-1.0,0.4683184527389994
0.13000000000000012,-1.0,0.4807404525693667
0.14000000000000012,-1.0,0.49126518946286346
0.15000000000000013,-1.0,0.49985112709126656
0.15999999999999992,-1.0,0.5064643806812985
0.16999999999999993,-1.0,0.5110788507423479
0.17999999999999994,-1.0,0.5136763260692341
0.18999999999999995,-1.0,0.5142465556135155
0.19999999999999996,-1.0,0.5127872889396942
0.20999999999999996,-1.0,0.5093042851066559
0.21999999999999997,-1.0,0.5038112899392971
0.22999999999999998,-1.0,0.4963299817800316
0.24,-1.0,0.48688988593428084
0.25,-1.0,0.47552825814757693
0.26,-1.0,0.4622899375741607
0.27,-1.0,0.4472271698173225
0.28,-1.0,0.43039940073987404
0.29000000000000004,-1.0,0.4118730418584876
0.30000000000000004,-1.0,0.3917212082477798
0.31000000000000005,-1.0,0.3700234299885151
0.32000000000000006,-1.0,0.3468653382987107
0.33000000000000007,-1.0,0.32233832758634084
0.3400000000000001,-1.0,0.2965391947573617
0.3500000000000001,-1.0,0.2695697572025467
0.3600000000000001,-1.0,0.2415364509707607
0.3700000000000001,-1.0,0.21254991071450113
0.3800000000000001,-1.0,0.18272453306546876
0.3900000000000001,-1.0,0.15217802516332565
0.40000000000000013,-1.0,0.12103094011938924
0.4099999999999999,-1.0,0.08940620124857858
0.41999999999999993,-1.0,0.057428616947247796
0.42999999999999994,-1.0,0.025224388131465606
0.43999999999999995,-1.0,-0.007079389820344588
0.44999999999999996,-1.0,-0.039355228654799575
0.45999999999999996,-1.0,-0.07147575038144773
0.47,-1.0,-0.10331418997550448
0.48,-1.0,-0.13474489566149161
0.49,-1.0,-0.16564382480339018
0.5,-1.0,-0.1958890334442549
0.51,-1.0,-0.22536115756330155
0.52,-1.0,-0.2539438841511657
0.53,-1.0,-0.28152441024421004
0.54,-1.0,-0.30799388810628925
0.55,-1.0,-0.33324785480103614
0.56,-1.0,-0.35718664445934634
0.5700000000000001,-1.0,-0.37971578161503083
0.5800000000000001,-1.0,-0.40074635405632053
0.5900000000000001,-1.0,-0.42019536372174376
0.6000000000000001,-1.0,-0.43798605425555853
0.6100000000000001,-1.0,-0.4540482139300209
0.6200000000000001,-1.0,-0.46831845273899975
0.6300000000000001,-1.0,-0.4807404525693666
0.6400000000000001,-1.0,-0.49126518946286346
0.6500000000000001,-1.0,-0.4998511270912668
0.6600000000000001,-1.0,-0.5064643806812987
0.6699999999999999,-1.0,-0.511078850742348
0.6799999999999999,-1.0,-0.5136763260692341
0.69,-1.0,-0.5142465556135157
0.7,-1.0,-0.5127872889396944
0.71,-1.0,-0.5093042851066562
0.72,-1.0,-0.5038112899392969
0.73,-1.0,-0.49632998178003157
0.74,-1.0,-0.4868898859342806
0.75,-1.0,-0.47552825814757727
0.76,-1.0,-0.462289937574161
0.77,-1.0,-0.44722716981732263
0.78,-1.0,-0.43039940073987404
0.79,-1.0,-0.4118730418584876
0.8,-1.0,-0.3917212082477798
0.81,-1.0,-0.3700234299885149
0.8200000000000001,-1.0,-0.3468653382987109
0.8300000000000001,-1.0,-0.32233832758634084
0.8400000000000001,-1.0,-0.29653919475736173
0.8500000000000001,-1.0,-0.2695697572025466
0.8600000000000001,-1.0,-0.2415364509707607
0.8700000000000001,-1.0,-0.21254991071450094
0.8800000000000001,-1.0,-0.18272453306546874
0.8900000000000001,-1.0,-0.15217802516332557
0.9000000000000001,-1.0,-0.1210309401193892
0.9100000000000001,-1.0,-0.0894062012485785
0.9199999999999999,-1.0,-0.05742861694724775
0.9299999999999999,-1.0,-0.02522438813146569
0.94,-1.0,0.007079389820344633
0.95,-1.0,0.03935522865479953
0.96,-1.0,0.07147575038144766
0.97,-1.0,0.10331418997550451
0.98,-1.0,0.13474489566149178
0.99,-1.0,0.16564382480339018
1.0,-1.0,0.1958890334442549

-1.0,-0.99,0.22536115756330183
-0.99,-0.99,0.25670687333886644
-0.98,-0.99,0.2870394843635771
-0.97,-0.99,0.3162392816793713
-0.96,-0.99,0.34419102702636234
-0.95,-0.99,0.3707844076356027
-0.94,-0.99,0.3959144715831884
-0.9299999999999999,-0.99,0.4194820419875519
-0.92,-0.99,0.4413941084153062
-0.91,-0.99,0.4615641939509316
-0.9,-0.99,0.479912696481655
-0.89,-0.99,0.49636720285062125
-0.88,-0.99,0.5108627746385398
-0.87,-0.99,0.5233422044459615
-0.86,-0.99,0.5337562416647457
-0.85,-0.99,0.5420637868477101
-0.84,-0.99,0.5482320539093748
-0.83,-0.99,0.55223669951766
-0.8200000000000001,-0.99,0.5540619191658982
-0.81,-0.99,0.553700509546002
-0.8,-0.99,0.5511538969766284
-0.79,-0.99,0.5464321317741521
-0.78,-0.99,0.539553848588658
-0.77,-0.99,0.5305461928614907
-0.76,-0.99,0.5194447136945988
-0.75,-0.99,0.5062932235544703
-0.74,-0.99,0.49114362536434475
-0.73,-0.99,0.47405570766708416
-0.72,-0.99,0.455096908667114
-0.71,-0.99,0.43434205008263527
-0.7,-0.99,0.41187304185848744
-0.69,-0.99,0.3877785589050189
-0.6799999999999999,-0.99,0.36215369113872364
-0.6699999999999999,-0.99,0.33509956820578735
-0.6599999999999999,-0.99,0.3067229603695732
-0.6499999999999999,-0.99,0.27713585713717215
-0.64,-0.99,0.24645502528797983
-0.63,-0.99,0.214801548048567
-0.62,-0.99,0.18230034723249894
-0.61,-0.99,0.14907969023101073
-0.6,-0.99,0.11527068380021266
-0.59,-0.99,0.08100675664262137
-0.5800000000000001,-0.99,0.04642313282502833
-0.5700000000000001,-0.99,0.011656298110886911
-0.56,-0.99,-0.023156538686642032
-0.55,-0.99,-0.057877987205191106
-0.54,-0.99,-0.09237101775017847
-0.53,-0.99,-0.12649950208840965
-0.52,-0.99,-0.16012875068402319
-0.51,-0.99,-0.1931260442565543
-0.5,-0.99,-0.22536115756330186
-0.49,-0.99,-0.2567068733388661
-0.48,-0.99,-0.2870394843635772
-0.47,-0.99,-0.3162392816793713
-0.45999999999999996,-0.99,-0.3441910270263621
-0.44999999999999996,-0.99,-0.3707844076356027
-0.43999999999999995,-0.99,-0.3959144715831885
-0.42999999999999994,-0.99,-0.41948204198755196
-0.42000000000000004,-0.99,-0.44139410841530624
-0.41000000000000003,-0.99,-0.46156419395093184
-0.4,-0.99,-0.47991269648165524
-0.39,-0.99,-0.49636720285062097
-0.38,-0.99,-0.51086277463854
-0.37,-0.99,-0.5233422044459616
-0.36,-0.99,-0.5337562416647457
-0.35,-0.99,-0.5420637868477103
-0.33999999999999997,-0.99,-0.5482320539093746
-0.32999999999999996,-0.99,-0.5522366995176603
-0.31999999999999995,-0.99,-0.5540619191658982
-0.30999999999999994,-0.99,-0.5537005095460023
-0.29999999999999993,-0.99,-0.5511538969766283
-0.29000000000000004,-0.99,-0.5464321317741521
-0.28,-0.99,-0.5395538485886577
-0.27,-0.99,-0.530546192861491
-0.26,-0.99,-0.5194447136945988
-0.25,-0.99,-0.5062932235544703
-0.24,-0.99,-0.49114362536434397
-0.22999999999999998,-0.99,-0.47405570766708416
-0.21999999999999997,-0.99,-0.45509690866711383
-0.20999999999999996,-0.99,-0.43434205008263504
-0.19999999999999996,-0.99,-0.4118730418584876
-0.18999999999999995,-0.99,-0.3877785589050188
-0.17999999999999994,-0.99,-0.3621536911387237
-0.16999999999999993,-0.99,-0.33509956820578723
-0.16000000000000003,-0.99,-0.3067229603695732
-0.15000000000000002,-0.99,-0.2771358571371719
-0.14,-0.99,-0.24645502528797975
-0.13,-0.99,-0.21480154804856674
-0.12,-0.99,-0.18230034723249888
-0.10999999999999999,-0.99,-0.14907969023101075
-0.09999999999999998,-0.99,-0.11527068380021266
-0.08999999999999997,-0.99,-0.08100675664262125
-0.07999999999999996,-0.99,-0.0464231328250283
-0.06999999999999995,-0.99,-0.011656298110886906
-0.05999999999999994,-0.99,0.023156538686642098
-0.04999999999999993,-0.99,0.05787798720519115
-0.040000000000000036,-0.99,0.09237101775017849
-0.030000000000000027,-0.99,0.12649950208840965
-0.020000000000000018,-0.99,0.16012875068402305
-0.010000000000000009,-0.99,0.1931260442565542
0.0,-0.99,0.2253611575633017
0.010000000000000009,-0.99,0.2567068733388662
0.020000000000000018,-0.99,0.2870394843635769
0.030000000000000027,-0.99,0.3162392816793712
0.040000000000000036,-0.99,0.3441910270263622
0.050000000000000044,-0.99,0.37078440763560283
0.06000000000000005,-0.99,0.3959144715831884
0.07000000000000006,-0.99,0.419482041987552
0.08000000000000007,-0.99,0.44139410841530624
0.09000000000000008,-0.99,0.46156419395093173
0.10000000000000009,-0.99,0.47991269648165524
0.1100000000000001,-0.99,0.49636720285062086
0.1200000000000001,-0.99,0.51086277463854
0.13000000000000012,-0.99,0.5233422044459615
0.14000000000000012,-0.99,0.5337562416647452
0.15000000000000013,-0.99,0.5420637868477096
0.15999999999999992,-0.99,0.5482320539093746
0.16999999999999993,-0.99,0.5522366995176596
0.17999999999999994,-0.99,0.5540619191658982
0.18999999999999995,-0.99,0.5537005095460019
0.19999999999999996,-0.99,0.5511538969766284
0.20999999999999996,-0.99,0.5464321317741524
0.21999999999999997,-0.99,0.5395538485886581
0.22999999999999998,-0.99,0.5305461928614912
0.24,-0.99,0.519444713694599
0.25,-0.99,0.5062932235544702
0.26,-0.99,0.49114362536434436
0.27,-0.99,0.4740557076670842
0.28,-0.99,0.45509690866711405
0.29000000000000004,-0.99,0.43434205008263516
0.30000000000000004,-0.99,0.41187304185848755
0.31000000000000005,-0.99,0.38777855890501856
0.32000000000000006,-0.99,0.36215369113872364
0.33000000000000007,-0.99,0.33509956820578735
0.3400000000000001,-0.99,0.30672296036957325
0.3500000000000001,-0.99,0.2771358571371719
0.3600000000000001,-0.99,0.2464550252879798
0.3700000000000001,-0.99,0.21480154804856677
0.3800000000000001,-0.99,0.18230034723249894
0.3900000000000001,-0.99,0.14907969023101064
0.40000000000000013,-0.99,0.11527068380021263
0.4099999999999999,-0.99,0.08100675664262125
0.41999999999999993,-0.99,0.04642313282502818
0.42999999999999994,-0.99,0.011656298110886872
0.43999999999999995,-0.99,-0.0231565386866422
0.44999999999999996,-0.99,-0.05787798720519124
0.45999999999999996,-0.99,-0.09237101775017849
0.47,-0.99,-0.1264995020884097
0.48,-0.99,-0.16012875068402319
0.49,-0.99,-0.1931260442565543
0.5,-0.99,-0.2253611575633016
0.51,-0.99,-0.2567068733388663
0.52,-0.99,-0.287039484363577
0.53,-0.99,-0.3162392816793712
0.54,-0.99,-0.3441910270263622
0.55,-0.99,-0.37078440763560283
0.56,-0.99,-0.3959144715831882
0.5700000000000001,-0.99,-0.419482041987552
0.5800000000000001,-0.99,-0.44139410841530635
0.5900000000000001,-0.99,-0.46156419395093184
0.6000000000000001,-0.99,-0.47991269648165497
0.6100000000000001,-0.99,-0.49636720285062114
0.6200000000000001,-0.99,-0.5108627746385399
0.6300000000000001,-0.99,-0.5233422044459615
0.6400000000000001,-0.99,-0.5337562416647456
0.6500000000000001,-0.99,-0.5420637868477101
0.6600000000000001,-0.99,-0.5482320539093746
0.6699999999999999,-0.99,-0.5522366995176599
0.6799999999999999,-0.99,-0.5540619191658984
0.69,-0.99,-0.5537005095460021
0.7,-0.99,-0.5511538969766286
0.71,-0.99,-0.5464321317741522
0.72,-0.99,-0.539553848588658
0.73,-0.99,-0.530546192861491
0.74,-0.99,-0.5194447136945991
0.75,-0.99,-0.5062932235544704
0.76,-0.99,-0.4911436253643444
0.77,-0.99,-0.4740557076670842
0.78,-0.99,-0.45509690866711405
0.79,-0.99,-0.4343420500826351
0.8,-0.99,-0.4118730418584874
0.81,-0.99,-0.38777855890501883
0.8200000000000001,-0.99,-0.36215369113872364
0.8300000000000001,-0.99,-0.33509956820578735
0.8400000000000001,-0.99,-0.30672296036957314
0.8500000000000001,-0.99,-0.2771358571371719
0.8600000000000001,-0.99,-0.24645502528797958
0.8700000000000001,-0.99,-0.21480154804856677
0.8800000000000001,-0.99,-0.18230034723249883
0.8900000000000001,-0.99,-0.14907969023101064
0.9000000000000001,-0.99,-0.11527068380021252
0.9100000000000001,-0.99,-0.08100675664262116
0.9199999999999999,-0.99,-0.046423132825028274
0.9299999999999999,-0.99,-0.011656298110886823
0.94,-0.99,0.023156538686642157
0.95,-0.99,0.05787798720519117
0.96,-0.99,0.09237101775017853
0.97,-0.99,0.12649950208840977
0.98,-0.99,0.16012875068402316
0.99,-0.99,0.19312604425655433
1.0,-0.99,0.22536115756330183

-1.0,-0.98,0.25394388415116587
-0.99,-0.98,0.2870394843635771
-0.98,-0.98,0.3190022708670719
-0.97,-0.98,0.3497061011457293
-0.96,-0.98,0.3790298012086847
-0.95,-0.98,0.4068576438085144
-0.94,-0.98,0.4330798051638084
-0.9299999999999999,-0.98,0.4575927983834636
-0.92,-0.98,0.48029988188216305
-0.91,-0.98,0.5011114411752176
-0.9,-0.98,0.5199453425459946
-0.89,-0.98,0.5367272571901738
-0.88,-0.98,0.5513909545575828
-0.87,-0.98,0.5638785637339188
-0.86,-0.98,0.574140801830808
-0.85,-0.98,0.5821371684828534
-0.84,-0.98,0.5878361056840712
-0.83,-0.98,0.5912151223329248
-0.8200000000000001,-0.98,0.5922608829944277
-0.81,-0.98,0.5909692605290111
-0.8,-0.98,0.5873453523804602
-0.79,-0.98,0.5814034604586306
-0.78,-0.98,0.573167034696346
-0.77,-0.98,0.5626685805032251
-0.76,-0.98,0.5499495304816805
-0.75,-0.98,0.5350600809113667
-0.74,-0.98,0.5180589936473935
-0.73,-0.98,0.4990133642141357
-0.72,-0.98,0.4779983570098455
-0.71,-0.98,0.4550969086671139
-0.7,-0.98,0.43039940073987415
-0.69,-0.98,0.40400330300869614
-0.6799999999999999,-0.98,0.3760127888120952
-0.6699999999999999,-0.98,0.3465383239219559
-0.6599999999999999,-0.98,0.31569623058559776
-0.6499999999999999,-0.98,0.28360822845500644
-0.64,-0.98,0.2504009542149782
-0.63,-0.98,0.21620546180597766
-0.62,-0.98,0.18115670521410876
-0.61,-0.98,0.14539300586938592
-0.6,-0.98,0.10905550675424283
-0.59,-0.98,0.07228761537666234
-0.5800000000000001,-0.98,0.03523443780626035
-0.5700000000000001,-0.98,-0.0019577939930794375
-0.56,-0.98,-0.039142299273959624
-0.55,-0.98,-0.07617232778202108
-0.54,-0.98,-0.11290173891215313
-0.53,-0.98,-0.14918557845869718
-0.52,-0.98,-0.1848806506834723
-0.51,-0.98,-0.21984608344393486
-0.5,-0.98,-0.25394388415116553
-0.49,-0.98,-0.2870394843635772
-0.48,-0.98,-0.3190022708670719
-0.47,-0.98,-0.34970610114572914
-0.45999999999999996,-0.98,-0.3790298012086847
-0.44999999999999996,-0.98,-0.4068576438085144
-0.43999999999999995,-0.98,-0.4330798051638085
-0.42999999999999994,-0.98,-0.4575927983834636
-0.42000000000000004,-0.98,-0.4802998818821633
-0.41000000000000003,-0.98,-0.5011114411752178
-0.4,-0.98,-0.5199453425459943
-0.39,-0.98,-0.536727257190174
-0.38,-0.98,-0.551390954557583
-0.37,-0.98,-0.563878563733919
-0.36,-0.98,-0.5741408018308083
-0.35,-0.98,-0.5821371684828531
-0.33999999999999997,-0.98,-0.5878361056840715
-0.32999999999999996,-0.98,-0.5912151223329248
-0.31999999999999995,-0.98,-0.5922608829944279
-0.30999999999999994,-0.98,-0.5909692605290109
-0.29999999999999993,-0.98,-0.5873453523804599
-0.29000000000000004,-0.98,-0.5814034604586302
-0.28,-0.98,-0.5731670346963463
-0.27,-0.98,-0.5626685805032252
-0.26,-0.98,-0.5499495304816806
-0.25,-0.98,-0.5350600809113659
-0.24,-0.98,-0.5180589936473936
-0.22999999999999998,-0.98,-0.49901336421413583
-0.21999999999999997,-0.98,-0.4779983570098453
-0.20999999999999996,-0.98,-0.45509690866711405
-0.19999999999999996,-0.98,-0.43039940073987415
-0.18999999999999995,-0.98,-0.40400330300869625
-0.17999999999999994,-0.98,-0.37601278881209516
-0.16999999999999993,-0.98,-0.34653832392195594
-0.16000000000000003,-0.98,-0.3156962305855976
-0.15000000000000002,-0.98,-0.28360822845500633
-0.14,-0.98,-0.250400954214978
-0.13,-0.98,-0.21620546180597752
-0.12,-0.98,-0.18115670521410882
-0.10999999999999999,-0.98,-0.14539300586938592
-0.09999999999999998,-0.98,-0.10905550675424269
-0.08999999999999997,-0.98,-0.07228761537666235
-0.07999999999999996,-0.98,-0.03523443780626036
-0.06999999999999995,-0.98,0.0019577939930795077
-0.05999999999999994,-0.98,0.03914229927395969
-0.04999999999999993,-0.98,0.0761723277820211
-0.040000000000000036,-0.98,0.11290173891215313
-0.030000000000000027,-0.98,0.14918557845869707
-0.020000000000000018,-0.98,0.1848806506834722
-0.010000000000000009,-0.98,0.21984608344393466
0.0,-0.98,0.25394388415116564
0.010000000000000009,-0.98,0.2870394843635769
0.020000000000000018,-0.98,0.3190022708670718
0.030000000000000027,-0.98,0.34970610114572914
0.040000000000000036,-0.98,0.37902980120868485
0.050000000000000044,-0.98,0.4068576438085144
0.06000000000000005,-0.98,0.4330798051638084
0.07000000000000006,-0.98,0.4575927983834637
0.08000000000000007,-0.98,0.4802998818821631
0.09000000000000008,-0.98,0.5011114411752178
0.10000000000000009,-0.98,0.5199453425459942
0.1100000000000001,-0.98,0.536727257190174
0.1200000000000001,-0.98,0.5513909545575829
0.13000000000000012,-0.98,0.5638785637339185
0.14000000000000012,-0.98,0.5741408018308078
0.15000000000000013,-0.98,0.5821371684828531
0.15999999999999992,-0.98,0.5878361056840709
0.16999999999999993,-0.98,0.5912151223329247
0.17999999999999994,-0.98,0.5922608829944275
0.18999999999999995,-0.98,0.590969260529011
0.19999999999999996,-0.98,0.5873453523804603
0.20999999999999996,-0.98,0.5814034604586304
0.21999999999999997,-0.98,0.5731670346963464
0.22999999999999998,-0.98,0.5626685805032254
0.24,-0.98,0.5499495304816805
0.25,-0.98,0.5350600809113663
0.26,-0.98,0.5180589936473936
0.27,-0.98,0.49901336421413583
0.28,-0.98,0.4779983570098454
0.29000000000000004,-0.98,0.45509690866711394
0.30000000000000004,-0.98,0.43039940073987387
0.31000000000000005,-0.98,0.4040033030086961
0.32000000000000006,-0.98,0.3760127888120952
0.33000000000000007,-0.98,0.346538323921956
0.3400000000000001,-0.98,0.3156962305855976
0.3500000000000001,-0.98,0.2836082284550064
0.3600000000000001,-0.98,0.250400954214978
0.3700000000000001,-0.98,0.2162054618059776
0.3800000000000001,-0.98,0.18115670521410868
0.3900000000000001,-0.98,0.1453930058693859
0.40000000000000013,-0.98,0.10905550675424268
0.4099999999999999,-0.98,0.07228761537666221
0.41999999999999993,-0.98,0.0352344378062603
0.42999999999999994,-0.98,-0.0019577939930796213
0.43999999999999995,-0.98,-0.03914229927395978
0.44999999999999996,-0.98,-0.07617232778202111
0.45999999999999996,-0.98,-0.11290173891215322
0.47,-0.98,-0.14918557845869718
0.48,-0.98,-0.18488065068347231
0.49,-0.98,-0.2198460834439346
0.5,-0.98,-0.25394388415116576
0.51,-0.98,-0.28703948436357696
0.52,-0.98,-0.3190022708670718
0.53,-0.98,-0.34970610114572914
0.54,-0.98,-0.3790298012086848
0.55,-0.98,-0.4068576438085142
0.56,-0.98,-0.4330798051638085
0.5700000000000001,-0.98,-0.4575927983834637
0.5800000000000001,-0.98,-0.4802998818821633
0.5900000000000001,-0.98,-0.5011114411752176
0.6000000000000001,-0.98,-0.5199453425459946
0.6100000000000001,-0.98,-0.536727257190174
0.6200000000000001,-0.98,-0.5513909545575829
0.6300000000000001,-0.98,-0.5638785637339189
0.6400000000000001,-0.98,-0.5741408018308081
0.6500000000000001,-0.98,-0.5821371684828531
0.6600000000000001,-0.98,-0.5878361056840709
0.6699999999999999,-0.98,-0.591215122332925
0.6799999999999999,-0.98,-0.5922608829944277
0.69,-0.98,-0.5909692605290113
0.7,-0.98,-0.58734535238046
0.71,-0.98,-0.5814034604586303
0.72,-0.98,-0.5731670346963462
0.73,-0.98,-0.5626685805032255
0.74,-0.98,-0.5499495304816806
0.75,-0.98,-0.5350600809113664
0.76,-0.98,-0.5180589936473936
0.77,-0.98,-0.4990133642141359
0.78,-0.98,-0.47799835700984544
0.79,-0.98,-0.4550969086671137
0.8,-0.98,-0.4303994007398742
0.81,-0.98,-0.404003303008696
0.8200000000000001,-0.98,-0.37601278881209527
0.8300000000000001,-0.98,-0.34653832392195594
0.8400000000000001,-0.98,-0.31569623058559765
0.8500000000000001,-0.98,-0.28360822845500605
0.8600000000000001,-0.98,-0.250400954214978
0.8700000000000001,-0.98,-0.2162054618059775
0.8800000000000001,-0.98,-0.1811567052141087
0.8900000000000001,-0.98,-0.14539300586938578
0.9000000000000001,-0.98,-0.10905550675424261
0.9100000000000001,-0.98,-0.07228761537666231
0.9199999999999999,-0.98,-0.03523443780626025
0.9299999999999999,-0.98,0.001957793993079597
0.94,-0.98,0.03914229927395972
0.95,-0.98,0.07617232778202115
0.96,-0.98,0.11290173891215324
0.97,-0.98,0.14918557845869718
0.98,-0.98,0.18488065068347237
0.99,-0.98,0.21984608344393483
1.0,-0.98,0.25394388415116587

-1.0,-0.97,0.2815244102442101
-0.99,-0.97,0.3162392816793713
-0.98,-0.97,0.34970610114572925
-0.97,-0.97,0.38179279039638525
-0.96,-0.97,0.4123727179278813
-0.95,-0.97,0.44132519873689036
-0.94,-0.97,0.4685359706087897
-0.9299999999999999,-0.97,0.49389764505841954
-0.92,-0.97,0.5173101311433749
-0.91,-0.97,0.538681030477226
-0.9,-0.97,0.5579260018837362
-0.89,-0.97,0.5749690942529562
-0.88,-0.97,0.5897430462855529
-0.87,-0.97,0.6021895519424294
-0.86,-0.97,0.6122594905520267
-0.85,-0.97,0.6199131206671693
-0.84,-0.97,0.6251202369064035
-0.83,-0.97,0.6278602891608389
-0.8200000000000001,-0.97,0.6281224636960376
-0.81,-0.97,0.6259057258288857
-0.8,-0.97,0.6212188240110132
-0.79,-0.97,0.6140802553026539
-0.78,-0.97,0.6045181923731976
-0.77,-0.97,0.5925703723165358
-0.76,-0.97,0.578283947719993
-0.75,-0.97,0.5617153005746038
-0.74,-0.97,0.5429298197611578
-0.73,-0.97,0.522001642990155
-0.72,-0.97,0.49901336421413567
-0.71,-0.97,0.4740557076670844
-0.7,-0.97,0.4472271698173226
-0.69,-0.97,0.4186336306469506
-0.6799999999999999,-0.97,0.3883879357919284
-0.6699999999999999,-0.97,0.3566094511919057
-0.6599999999999999,-0.97,0.3234235920073892
-0.6499999999999999,-0.97,0.28896132766340377
-0.64,-0.97,0.2533586649730042
-0.63,-0.97,0.21675611138051998
-0.62,-0.97,0.17929812044286458
-0.61,-0.97,0.14113252173734087
-0.6,-0.97,0.10240993744583562
-0.59,-0.97,0.06328318791788179
-0.5800000000000001,-0.97,0.02390668855855461
-0.5700000000000001,-0.97,-0.015564159578586182
-0.56,-0.97,-0.05497358308845848
-0.55,-0.97,-0.09416605098092166
-0.54,-0.97,-0.13298688849053977
-0.53,-0.97,-0.17128288750721574
-0.52,-0.97,-0.20890291121860888
-0.51,-0.97,-0.24569849057808363
-0.5,-0.97,-0.2815244102442101
-0.49,-0.97,-0.3162392816793713
-0.48,-0.97,-0.3497061011457291
-0.47,-0.97,-0.38179279039638525
-0.45999999999999996,-0.97,-0.4123727179278814
-0.44999999999999996,-0.97,-0.44132519873689047
-0.43999999999999995,-0.97,-0.4685359706087896
-0.42999999999999994,-0.97,-0.4938976450584198
-0.42000000000000004,-0.97,-0.5173101311433752
-0.41000000000000003,-0.97,-0.5386810304772258
-0.4,-0.97,-0.5579260018837364
-0.39,-0.97,-0.5749690942529564
-0.38,-0.97,-0.589743046285553
-0.37,-0.97,-0.6021895519424296
-0.36,-0.97,-0.6122594905520264
-0.35,-0.97,-0.6199131206671693
-0.33999999999999997,-0.97,-0.6251202369064035
-0.32999999999999996,-0.97,-0.6278602891608391
-0.31999999999999995,-0.97,-0.6281224636960374
-0.30999999999999994,-0.97,-0.6259057258288856
-0.29999999999999993,-0.97,-0.6212188240110129
-0.29000000000000004,-0.97,-0.6140802553026541
-0.28,-0.97,-0.6045181923731976
-0.27,-0.97,-0.5925703723165359
-0.26,-0.97,-0.5782839477199924
-0.25,-0.97,-0.5617153005746037
-0.24,-0.97,-0.5429298197611577
-0.22999999999999998,-0.97,-0.5220016429901547
-0.21999999999999997,-0.97,-0.49901336421413595
-0.20999999999999996,-0.97,-0.4740557076670844
-0.19999999999999996,-0.97,-0.4472271698173227
-0.18999999999999995,-0.97,-0.41863363064695047
-0.17999999999999994,-0.97,-0.38838793579192843
-0.16999999999999993,-0.97,-0.35660945119190546
-0.16000000000000003,-0.97,-0.323423592007389
-0.15000000000000002,-0.97,-0.28896132766340366
-0.14,-0.97,-0.2533586649730041
-0.13,-0.97,-0.21675611138052
-0.12,-0.97,-0.17929812044286464
-0.10999999999999999,-0.97,-0.14113252173734073
-0.09999999999999998,-0.97,-0.10240993744583562
-0.08999999999999997,-0.97,-0.0632831879178818
-0.07999999999999996,-0.97,-0.023906688558554542
-0.06999999999999995,-0.97,0.015564159578586248
-0.05999999999999994,-0.97,0.0549735830884585
-0.04999999999999993,-0.97,0.09416605098092165
-0.040000000000000036,-0.97,0.1329868884905397
-0.030000000000000027,-0.97,0.1712828875072157
-0.020000000000000018,-0.97,0.20890291121860866
-0.010000000000000009,-0.97,0.24569849057808368
0.0,-0.97,0.2815244102442098
0.010000000000000009,-0.97,0.3162392816793712
0.020000000000000018,-0.97,0.3497061011457291
0.030000000000000027,-0.97,0.3817927903963854
0.040000000000000036,-0.97,0.4123727179278814
0.050000000000000044,-0.97,0.44132519873689036
0.06000000000000005,-0.97,0.4685359706087897
0.07000000000000006,-0.97,0.49389764505841965
0.08000000000000007,-0.97,0.5173101311433751
0.09000000000000008,-0.97,0.5386810304772256
0.10000000000000009,-0.97,0.5579260018837364
0.1100000000000001,-0.97,0.5749690942529564
0.1200000000000001,-0.97,0.5897430462855526
0.13000000000000012,-0.97,0.6021895519424293
0.14000000000000012,-0.97,0.6122594905520264
0.15000000000000013,-0.97,0.6199131206671687
0.15999999999999992,-0.97,0.6251202369064033
0.16999999999999993,-0.97,0.6278602891608386
0.17999999999999994,-0.97,0.6281224636960376
0.18999999999999995,-0.97,0.6259057258288858
0.19999999999999996,-0.97,0.6212188240110132
0.20999999999999996,-0.97,0.6140802553026543
0.21999999999999997,-0.97,0.6045181923731978
0.22999999999999998,-0.97,0.5925703723165358
0.24,-0.97,0.5782839477199927
0.25,-0.97,0.5617153005746037
0.26,-0.97,0.5429298197611577
0.27,-0.97,0.5220016429901548
0.28,-0.97,0.4990133642141358
0.29000000000000004,-0.97,0.47405570766708416
0.30000000000000004,-0.97,0.44722716981732247
0.31000000000000005,-0.97,0.41863363064695047
0.32000000000000006,-0.97,0.38838793579192854
0.33000000000000007,-0.97,0.35660945119190546
0.3400000000000001,-0.97,0.32342359200738907
0.3500000000000001,-0.97,0.28896132766340366
0.3600000000000001,-0.97,0.2533586649730042
0.3700000000000001,-0.97,0.21675611138051987
0.3800000000000001,-0.97,0.17929812044286453
0.3900000000000001,-0.97,0.14113252173734067
0.40000000000000013,-0.97,0.10240993744583547
0.4099999999999999,-0.97,0.06328318791788173
0.41999999999999993,-0.97,0.023906688558554424
0.42999999999999994,-0.97,-0.015564159578586348
0.43999999999999995,-0.97,-0.05497358308845854
0.44999999999999996,-0.97,-0.09416605098092176
0.45999999999999996,-0.97,-0.13298688849053977
0.47,-0.97,-0.17128288750721588
0.48,-0.97,-0.20890291121860866
0.49,-0.97,-0.24569849057808377
0.5,-0.97,-0.28152441024420993
0.51,-0.97,-0.3162392816793712
0.52,-0.97,-0.34970610114572914
0.53,-0.97,-0.38179279039638536
0.54,-0.97,-0.41237271792788116
0.55,-0.97,-0.44132519873689047
0.56,-0.97,-0.4685359706087897
0.5700000000000001,-0.97,-0.4938976450584198
0.5800000000000001,-0.97,-0.517310131143375
0.5900000000000001,-0.97,-0.5386810304772259
0.6000000000000001,-0.97,-0.5579260018837366
0.6100000000000001,-0.97,-0.5749690942529564
0.6200000000000001,-0.97,-0.5897430462855529
0.6300000000000001,-0.97,-0.6021895519424296
0.6400000000000001,-0.97,-0.6122594905520263