TITLE = "Solution" 
VARIABLES = "x", "y", "sol" 
ZONE STRANDID=1, SOLUTIONTIME= 1.5999999999999879, I= 201, J =201, DATAPACKING=POINT 
-1.0,-1.0,0.11123654644710679
-0.99,-1.0,0.08115838015230967
-0.98,-1.0,0.05075991880878838
-0.97,-1.0,0.02016113125572985
-0.96,-1.0,-0.010517223071650362
-0.95,-1.0,-0.041154070724428934
-0.94,-1.0,-0.07162850206156463
-0.9299999999999999,-1.0,-0.10182024842501308
-0.92,-1.0,-0.13161015678517485
-0.91,-1.0,-0.16088065998346682
-0.9,-1.0,-0.18951624071618614
-0.89,-1.0,-0.21740388742853334
-0.88,-1.0,-0.24443354031958858
-0.87,-1.0,-0.2704985256980647
-0.86,-1.0,-0.2954959769746319
-0.85,-1.0,-0.3193272406293508
-0.84,-1.0,-0.34189826555204483
-0.83,-1.0,-0.3631199742190643
-0.8200000000000001,-1.0,-0.38290861424157796
-0.81,-1.0,-0.4011860888979855
-0.8,-1.0,-0.41788026534600264
-0.79,-1.0,-0.43292525929803266
-0.78,-1.0,-0.4462616950363506
-0.77,-1.0,-0.4578369397419352
-0.76,-1.0,-0.4676053112121601
-0.75,-1.0,-0.47552825814757654
-0.74,-1.0,-0.48157451229628107
-0.73,-1.0,-0.4857202118554189
-0.72,-1.0,-0.48794899564282024
-0.71,-1.0,-0.4882520676671108
-0.7,-1.0,-0.48662823184147086
-0.69,-1.0,-0.4830838967040448
-0.6799999999999999,-1.0,-0.4776330501263669
-0.6699999999999999,-1.0,-0.470297204109624
-0.6599999999999999,-1.0,-0.4611053098866157
-0.6499999999999999,-1.0,-0.4500936436644626
-0.64,-1.0,-0.43730566345899213
-0.63,-1.0,-0.4227918375858027
-0.62,-1.0,-0.40660944548487965
-0.61,-1.0,-0.3888223516648134
-0.6,-1.0,-0.3695007536587611
-0.59,-1.0,-0.34872090498685526
-0.5800000000000001,-1.0,-0.32656481421839323
-0.5700000000000001,-1.0,-0.3031199213214831
-0.56,-1.0,-0.2784787525774368
-0.55,-1.0,-0.2527385554218078
-0.54,-1.0,-0.22600091465319136
-0.53,-1.0,-0.1983713515244353
-0.52,-1.0,-0.1699589072984623
-0.51,-1.0,-0.14087571291222123
-0.5,-1.0,-0.1112365464471067
-0.49,-1.0,-0.08115838015230957
-0.48,-1.0,-0.05075991880878836
-0.47,-1.0,-0.020161131255729825
-0.45999999999999996,-1.0,0.010517223071650391
-0.44999999999999996,-1.0,0.04115407072442895
-0.43999999999999995,-1.0,0.07162850206156465
-0.42999999999999994,-1.0,0.10182024842501324
-0.42000000000000004,-1.0,0.13161015678517507
-0.41000000000000003,-1.0,0.16088065998346693
-0.4,-1.0,0.18951624071618628
-0.39,-1.0,0.21740388742853328
-0.38,-1.0,0.24443354031958853
-0.37,-1.0,0.2704985256980648
-0.36,-1.0,0.2954959769746319
-0.35,-1.0,0.3193272406293507
-0.33999999999999997,-1.0,0.3418982655520447
-0.32999999999999996,-1.0,0.36311997421906456
-0.31999999999999995,-1.0,0.3829086142415779
-0.30999999999999994,-1.0,0.4011860888979857
-0.29999999999999993,-1.0,0.41788026534600275
-0.29000000000000004,-1.0,0.43292525929803255
-0.28,-1.0,0.4462616950363507
-0.27,-1.0,0.4578369397419352
-0.26,-1.0,0.4676053112121601
-0.25,-1.0,0.4755282581475767
-0.24,-1.0,0.4815745122962814
-0.22999999999999998,-1.0,0.4857202118554189
-0.21999999999999997,-1.0,0.48794899564282024
-0.20999999999999996,-1.0,0.48825206766711093
-0.19999999999999996,-1.0,0.4866282318414709
-0.18999999999999995,-1.0,0.48308389670404484
-0.17999999999999994,-1.0,0.47763305012636653
-0.16999999999999993,-1.0,0.47029720410962395
-0.16000000000000003,-1.0,0.4611053098866157
-0.15000000000000002,-1.0,0.4500936436644626
-0.14,-1.0,0.43730566345899224
-0.13,-1.0,0.42279183758580274
-0.12,-1.0,0.4066094454848793
-0.10999999999999999,-1.0,0.38882235166481327
-0.09999999999999998,-1.0,0.3695007536587611
-0.08999999999999997,-1.0,0.34872090498685504
-0.07999999999999996,-1.0,0.3265648142183929
-0.06999999999999995,-1.0,0.30311992132148324
-0.05999999999999994,-1.0,0.2784787525774368
-0.04999999999999993,-1.0,0.25273855542180756
-0.040000000000000036,-1.0,0.22600091465319136
-0.030000000000000027,-1.0,0.19837135152443539
-0.020000000000000018,-1.0,0.16995890729846247
-0.010000000000000009,-1.0,0.14087571291222134
0.0,-1.0,0.11123654644710686
0.010000000000000009,-1.0,0.08115838015230975
0.020000000000000018,-1.0,0.050759918808788454
0.030000000000000027,-1.0,0.020161131255729887
0.040000000000000036,-1.0,-0.010517223071650228
0.050000000000000044,-1.0,-0.04115407072442884
0.06000000000000005,-1.0,-0.07162850206156451
0.07000000000000006,-1.0,-0.10182024842501314
0.08000000000000007,-1.0,-0.13161015678517476
0.09000000000000008,-1.0,-0.1608806599834668
0.10000000000000009,-1.0,-0.18951624071618622
0.1100000000000001,-1.0,-0.21740388742853337
0.1200000000000001,-1.0,-0.24443354031958853
0.13000000000000012,-1.0,-0.27049852569806454
0.14000000000000012,-1.0,-0.29549597697463165
0.15000000000000013,-1.0,-0.31932724062935053
0.15999999999999992,-1.0,-0.34189826555204467
0.16999999999999993,-1.0,-0.36311997421906467
0.17999999999999994,-1.0,-0.38290861424157807
0.18999999999999995,-1.0,-0.4011860888979857
0.19999999999999996,-1.0,-0.41788026534600264
0.20999999999999996,-1.0,-0.4329252592980326
0.21999999999999997,-1.0,-0.4462616950363503
0.22999999999999998,-1.0,-0.4578369397419353
0.24,-1.0,-0.4676053112121603
0.25,-1.0,-0.4755282581475768
0.26,-1.0,-0.4815745122962809
0.27,-1.0,-0.4857202118554186
0.28,-1.0,-0.4879489956428203
0.29000000000000004,-1.0,-0.48825206766711055
0.30000000000000004,-1.0,-0.4866282318414708
0.31000000000000005,-1.0,-0.48308389670404506
0.32000000000000006,-1.0,-0.47763305012636653
0.33000000000000007,-1.0,-0.47029720410962406
0.3400000000000001,-1.0,-0.46110530988661547
0.3500000000000001,-1.0,-0.4500936436644629
0.3600000000000001,-1.0,-0.437305663458992
0.3700000000000001,-1.0,-0.42279183758580285
0.3800000000000001,-1.0,-0.4066094454848795
0.3900000000000001,-1.0,-0.38882235166481316
0.40000000000000013,-1.0,-0.36950075365876134
0.4099999999999999,-1.0,-0.3487209049868552
0.41999999999999993,-1.0,-0.32656481421839295
0.42999999999999994,-1.0,-0.30311992132148324
0.43999999999999995,-1.0,-0.27847875257743665
0.44999999999999996,-1.0,-0.25273855542180784
0.45999999999999996,-1.0,-0.22600091465319125
0.47,-1.0,-0.19837135152443547
0.48,-1.0,-0.16995890729846236
0.49,-1.0,-0.1408757129122214
0.5,-1.0,-0.11123654644710677
0.51,-1.0,-0.0811583801523097
0.52,-1.0,-0.050759918808788405
0.53,-1.0,-0.02016113125572986
0.54,-1.0,0.010517223071650313
0.55,-1.0,0.04115407072442884
0.56,-1.0,0.0716285020615646
0.5700000000000001,-1.0,0.10182024842501308
0.5800000000000001,-1.0,0.13161015678517485
0.5900000000000001,-1.0,0.16088065998346673
0.6000000000000001,-1.0,0.18951624071618614
0.6100000000000001,-1.0,0.21740388742853328
0.6200000000000001,-1.0,0.24443354031958853
0.6300000000000001,-1.0,0.27049852569806454
0.6400000000000001,-1.0,0.2954959769746317
0.6500000000000001,-1.0,0.3193272406293505
0.6600000000000001,-1.0,0.3418982655520447
0.6699999999999999,-1.0,0.3631199742190645
0.6799999999999999,-1.0,0.38290861424157796
0.69,-1.0,0.4011860888979857
0.7,-1.0,0.4178802653460028
0.71,-1.0,0.43292525929803277
0.72,-1.0,0.44626169503635027
0.73,-1.0,0.4578369397419353
0.74,-1.0,0.46760531121216015
0.75,-1.0,0.4755282581475769
0.76,-1.0,0.4815745122962811
0.77,-1.0,0.4857202118554187
0.78,-1.0,0.4879489956428202
0.79,-1.0,0.4882520676671108
0.8,-1.0,0.48662823184147097
0.81,-1.0,0.48308389670404495
0.8200000000000001,-1.0,0.4776330501263663
0.8300000000000001,-1.0,0.4702972041096242
0.8400000000000001,-1.0,0.4611053098866159
0.8500000000000001,-1.0,0.45009364366446264
0.8600000000000001,-1.0,0.43730566345899236
0.8700000000000001,-1.0,0.42279183758580274
0.8800000000000001,-1.0,0.4066094454848797
0.8900000000000001,-1.0,0.38882235166481305
0.9000000000000001,-1.0,0.3695007536587612
0.9100000000000001,-1.0,0.34872090498685515
0.9199999999999999,-1.0,0.32656481421839306
0.9299999999999999,-1.0,0.30311992132148335
0.94,-1.0,0.2784787525774369
0.95,-1.0,0.2527385554218076
0.96,-1.0,0.22600091465319117
0.97,-1.0,0.19837135152443539
0.98,-1.0,0.16995890729846228
0.99,-1.0,0.14087571291222106
1.0,-1.0,0.11123654644710679

-1.0,-0.99,0.08115838015230965
-0.99,-0.99,0.052855397852044184
-0.98,-0.99,0.024343819443791007
-0.97,-0.99,-0.004263832898173642
-0.96,-0.99,-0.03285465783964914
-0.95,-0.99,-0.0613158204564969
-0.94,-0.99,-0.0895349975425366
-0.9299999999999999,-0.99,-0.11740082089792547
-0.92,-0.99,-0.14480331684856346
-0.91,-0.99,-0.1716343402619428
-0.9,-0.99,-0.19778800134657973
-0.89,-0.99,-0.22316108355064426
-0.88,-0.99,-0.2476534509105356
-0.87,-0.99,-0.2711684432417826
-0.86,-0.99,-0.2936132576126319
-0.85,-0.99,-0.31489931459482173
-0.84,-0.99,-0.3349426078461179
-0.83,-0.99,-0.3536640356449681
-0.8200000000000001,-0.99,-0.3709897130688559
-0.81,-0.99,-0.38685126358433897
-0.8,-0.99,-0.4011860888979857
-0.79,-0.99,-0.4139376160032417
-0.78,-0.99,-0.42505552044824113
-0.77,-0.99,-0.4344959249434271
-0.76,-0.99,-0.4422215725251675
-0.75,-0.99,-0.44820197359197034
-0.74,-0.99,-0.45241352623300973
-0.73,-0.99,-0.45483960937408713
-0.72,-0.99,-0.45547064837341655
-0.71,-0.99,-0.45430415280836206
-0.7,-0.99,-0.4513447263039979
-0.69,-0.99,-0.44660404836470324
-0.6799999999999999,-0.99,-0.44010082828049446
-0.6699999999999999,-0.99,-0.43186073129000585
-0.6599999999999999,-0.99,-0.4219162772915164
-0.6499999999999999,-0.99,-0.41030671250176914
-0.64,-0.99,-0.39707785456908373
-0.63,-0.99,-0.3822819117520303
-0.62,-0.99,-0.36597727687728426
-0.61,-0.99,-0.3482282968898168
-0.6,-0.99,-0.3291050189049016
-0.59,-0.99,-0.30868291376414986
-0.5800000000000001,-0.99,-0.2870425781865797
-0.5700000000000001,-0.99,-0.2642694166901874
-0.56,-0.99,-0.24045330453933125
-0.55,-0.99,-0.21568823304812362
-0.54,-0.99,-0.1900719386396555
-0.53,-0.99,-0.1637055171249856
-0.52,-0.99,-0.1366930247241601
-0.51,-0.99,-0.1091410674038509
-0.5,-0.99,-0.08115838015230958
-0.49,-0.99,-0.052855397852044156
-0.48,-0.99,-0.024343819443790993
-0.47,-0.99,0.004263832898173671
-0.45999999999999996,-0.99,0.03285465783964915
-0.44999999999999996,-0.99,0.06131582045649696
-0.43999999999999995,-0.99,0.08953499754253672
-0.42999999999999994,-0.99,0.11740082089792565
-0.42000000000000004,-0.99,0.14480331684856357
-0.41000000000000003,-0.99,0.17163434026194294
-0.4,-0.99,0.1977880013465797
-0.39,-0.99,0.22316108355064418
-0.38,-0.99,0.24765345091053576
-0.37,-0.99,0.2711684432417826
-0.36,-0.99,0.2936132576126317
-0.35,-0.99,0.3148993145948217
-0.33999999999999997,-0.99,0.3349426078461183
-0.32999999999999996,-0.99,0.35366403564496796
-0.31999999999999995,-0.99,0.3709897130688561
-0.30999999999999994,-0.99,0.3868512635843391
-0.29999999999999993,-0.99,0.40118608889798557
-0.29000000000000004,-0.99,0.41393761600324186
-0.28,-0.99,0.425055520448241
-0.27,-0.99,0.43449592494342704
-0.26,-0.99,0.4422215725251676
-0.25,-0.99,0.4482019735919705
-0.24,-0.99,0.4524135262330097
-0.22999999999999998,-0.99,0.4548396093740871
-0.21999999999999997,-0.99,0.4554706483734169
-0.20999999999999996,-0.99,0.454304152808362
-0.19999999999999996,-0.99,0.45134472630399786
-0.18999999999999995,-0.99,0.4466040483647029
-0.17999999999999994,-0.99,0.4401008282804943
-0.16999999999999993,-0.99,0.4318607312900058
-0.16000000000000003,-0.99,0.4219162772915162
-0.15000000000000002,-0.99,0.4103067125017692
-0.14,-0.99,0.39707785456908373
-0.13,-0.99,0.38228191175202997
-0.12,-0.99,0.3659772768772841
-0.10999999999999999,-0.99,0.3482282968898168
-0.09999999999999998,-0.99,0.3291050189049014
-0.08999999999999997,-0.99,0.3086829137641496
-0.07999999999999996,-0.99,0.28704257818657986
-0.06999999999999995,-0.99,0.2642694166901875
-0.05999999999999994,-0.99,0.24045330453933103
-0.04999999999999993,-0.99,0.21568823304812365
-0.040000000000000036,-0.99,0.19007193863965563
-0.030000000000000027,-0.99,0.16370551712498577
-0.020000000000000018,-0.99,0.13669302472416017
-0.010000000000000009,-0.99,0.10914106740385104
0.0,-0.99,0.08115838015230974
0.010000000000000009,-0.99,0.05285539785204424
0.020000000000000018,-0.99,0.024343819443791048
0.030000000000000027,-0.99,-0.004263832898173513
0.040000000000000036,-0.99,-0.032854657839649054
0.050000000000000044,-0.99,-0.061315820456496826
0.06000000000000005,-0.99,-0.08953499754253666
0.07000000000000006,-0.99,-0.11740082089792539
0.08000000000000007,-0.99,-0.1448033168485634
0.09000000000000008,-0.99,-0.17163434026194285
0.10000000000000009,-0.99,-0.19778800134657973
0.1100000000000001,-0.99,-0.22316108355064423
0.1200000000000001,-0.99,-0.24765345091053553
0.13000000000000012,-0.99,-0.27116844324178235
0.14000000000000012,-0.99,-0.2936132576126316
0.15000000000000013,-0.99,-0.3148993145948215
0.15999999999999992,-0.99,-0.3349426078461183
0.16999999999999993,-0.99,-0.3536640356449683
0.17999999999999994,-0.99,-0.37098971306885614
0.18999999999999995,-0.99,-0.38685126358433897
0.19999999999999996,-0.99,-0.4011860888979857
0.20999999999999996,-0.99,-0.4139376160032415
0.21999999999999997,-0.99,-0.4250555204482412
0.22999999999999998,-0.99,-0.4344959249434272
0.24,-0.99,-0.4422215725251677
0.25,-0.99,-0.4482019735919702
0.26,-0.99,-0.45241352623300946
0.27,-0.99,-0.4548396093740872
0.28,-0.99,-0.45547064837341644
0.29000000000000004,-0.99,-0.454304152808362
0.30000000000000004,-0.99,-0.45134472630399813
0.31000000000000005,-0.99,-0.4466040483647029
0.32000000000000006,-0.99,-0.4401008282804944
0.33000000000000007,-0.99,-0.4318607312900056
0.3400000000000001,-0.99,-0.4219162772915165
0.3500000000000001,-0.99,-0.4103067125017691
0.3600000000000001,-0.99,-0.3970778545690838
0.3700000000000001,-0.99,-0.3822819117520302
0.3800000000000001,-0.99,-0.3659772768772842
0.3900000000000001,-0.99,-0.34822829688981705
0.40000000000000013,-0.99,-0.32910501890490157
0.4099999999999999,-0.99,-0.3086829137641496
0.41999999999999993,-0.99,-0.28704257818657986
0.42999999999999994,-0.99,-0.2642694166901873
0.43999999999999995,-0.99,-0.24045330453933134
0.44999999999999996,-0.99,-0.2156882330481235
0.45999999999999996,-0.99,-0.19007193863965566
0.47,-0.99,-0.16370551712498566
0.48,-0.99,-0.13669302472416023
0.49,-0.99,-0.10914106740385099
0.5,-0.99,-0.0811583801523097
0.51,-0.99,-0.052855397852044184
0.52,-0.99,-0.02434381944379102
0.53,-0.99,0.004263832898173598
0.54,-0.99,0.03285465783964905
0.55,-0.99,0.06131582045649688
0.56,-0.99,0.08953499754253659
0.5700000000000001,-0.99,0.11740082089792549
0.5800000000000001,-0.99,0.14480331684856335
0.5900000000000001,-0.99,0.1716343402619428
0.6000000000000001,-0.99,0.19778800134657967
0.6100000000000001,-0.99,0.22316108355064418
0.6200000000000001,-0.99,0.24765345091053553
0.6300000000000001,-0.99,0.2711684432417824
0.6400000000000001,-0.99,0.29361325761263146
0.6500000000000001,-0.99,0.3148993145948217
0.6600000000000001,-0.99,0.33494260784611807
0.6699999999999999,-0.99,0.35366403564496807
0.6799999999999999,-0.99,0.3709897130688561
0.69,-0.99,0.3868512635843391
0.7,-0.99,0.4011860888979858
0.71,-0.99,0.4139376160032414
0.72,-0.99,0.4250555204482412
0.73,-0.99,0.43449592494342704
0.74,-0.99,0.4422215725251677
0.75,-0.99,0.44820197359197045
0.76,-0.99,0.45241352623300957
0.77,-0.99,0.4548396093740871
0.78,-0.99,0.4554706483734168
0.79,-0.99,0.4543041528083621
0.8,-0.99,0.45134472630399797
0.81,-0.99,0.4466040483647026
0.8200000000000001,-0.99,0.44010082828049457
0.8300000000000001,-0.99,0.431860731290006
0.8400000000000001,-0.99,0.42191627729151626
0.8500000000000001,-0.99,0.4103067125017693
0.8600000000000001,-0.99,0.39707785456908373
0.8700000000000001,-0.99,0.3822819117520304
0.8800000000000001,-0.99,0.36597727687728393
0.8900000000000001,-0.99,0.34822829688981694
0.9000000000000001,-0.99,0.3291050189049015
0.9100000000000001,-0.99,0.3086829137641497
0.9199999999999999,-0.99,0.28704257818657997
0.9299999999999999,-0.99,0.2642694166901876
0.94,-0.99,0.24045330453933111
0.95,-0.99,0.21568823304812343
0.96,-0.99,0.19007193863965557
0.97,-0.99,0.16370551712498554
0.98,-0.99,0.1366930247241599
0.99,-0.99,0.109141067403851
1.0,-0.99,0.08115838015230965

-1.0,-0.98,0.05075991880878839
-0.99,-0.98,0.024343819443791
-0.98,-0.98,-0.0021683538549178497
-0.97,-0.98,-0.02867196965158797
-0.96,-0.98,-0.05506243028302016
-0.95,-0.98,-0.08123558465775682
-0.94,-0.98,-0.10708813929285776
-0.9299999999999999,-0.98,-0.13251806596608695
-0.92,-0.98,-0.15742500437469342
-0.91,-0.98,-0.1817106582116763
-0.9,-0.98,-0.20527918309640092
-0.89,-0.98,-0.22803756482858198
-0.88,-0.98,-0.24989598647283823
-0.87,-0.98,-0.2707681828251028
-0.86,-0.98,-0.29057178086197244
-0.85,-0.98,-0.30922862482939895
-0.84,-0.98,-0.326665084687745
-0.83,-0.98,-0.34281234669590965
-0.8200000000000001,-0.98,-0.35760668498772913
-0.81,-0.98,-0.370989713068856
-0.8,-0.98,-0.38290861424157796
-0.79,-0.98,-0.3933163500481941
-0.78,-0.98,-0.4021718459103182
-0.77,-0.98,-0.40944015323147337
-0.76,-0.98,-0.4150925873232373
-0.75,-0.98,-0.41910684061060066
-0.74,-0.98,-0.4214670706697764
-0.73,-0.98,-0.4221639627510074
-0.72,-0.98,-0.42119476653962895
-0.71,-0.98,-0.4185633070103037
-0.7,-0.98,-0.4142799693315944
-0.69,-0.98,-0.40836165788044754
-0.6799999999999999,-0.98,-0.4008317295283421
-0.6699999999999999,-0.98,-0.3917199014623867
-0.6599999999999999,-0.98,-0.3810621339051592
-0.6499999999999999,-0.98,-0.3689004881961373
-0.64,-0.98,-0.3552829607948073
-0.63,-0.98,-0.3402632938605653
-0.62,-0.98,-0.32390076315696753
-0.61,-0.98,-0.30625994411737256
-0.6,-0.98,-0.2874104569952055
-0.59,-0.98,-0.26742669210462605
-0.5800000000000001,-0.98,-0.24638751623594407
-0.5700000000000001,-0.98,-0.22437596140442784
-0.56,-0.98,-0.20147889716087425
-0.55,-0.98,-0.17778668775717898
-0.54,-0.98,-0.1533928355199179
-0.53,-0.98,-0.12839361183938033
-0.52,-0.98,-0.10288767723037417
-0.51,-0.98,-0.07697569196424843
-0.5,-0.98,-0.050759918808788364
-0.49,-0.98,-0.024343819443791
-0.48,-0.98,0.0021683538549178826
-0.47,-0.98,0.028671969651587983
-0.45999999999999996,-0.98,0.05506243028302023
-0.44999999999999996,-0.98,0.08123558465775692
-0.43999999999999995,-0.98,0.10708813929285793
-0.42999999999999994,-0.98,0.13251806596608706
-0.42000000000000004,-0.98,0.15742500437469353
-0.41000000000000003,-0.98,0.1817106582116763
-0.4,-0.98,0.20527918309640086
-0.39,-0.98,0.22803756482858212
-0.38,-0.98,0.24989598647283823
-0.37,-0.98,0.27076818282510257
-0.36,-0.98,0.29057178086197233
-0.35,-0.98,0.3092286248293993
-0.33999999999999997,-0.98,0.3266650846877449
-0.32999999999999996,-0.98,0.34281234669590965
-0.31999999999999995,-0.98,0.3576066849877292
-0.30999999999999994,-0.98,0.37098971306885586
-0.29999999999999993,-0.98,0.3829086142415781
-0.29000000000000004,-0.98,0.393316350048194
-0.28,-0.98,0.4021718459103181
-0.27,-0.98,0.40944015323147354
-0.26,-0.98,0.4150925873232374
-0.25,-0.98,0.4191068406106006
-0.24,-0.98,0.4214670706697763
-0.22999999999999998,-0.98,0.42216396275100776
-0.21999999999999997,-0.98,0.42119476653962895
-0.20999999999999996,-0.98,0.4185633070103037
-0.19999999999999996,-0.98,0.414279969331594
-0.18999999999999995,-0.98,0.4083616578804473
-0.17999999999999994,-0.98,0.4008317295283421
-0.16999999999999993,-0.98,0.39171990146238655
-0.16000000000000003,-0.98,0.3810621339051593
-0.15000000000000002,-0.98,0.3689004881961373
-0.14,-0.98,0.3552829607948069
-0.13,-0.98,0.3402632938605651
-0.12,-0.98,0.3239007631569675
-0.10999999999999999,-0.98,0.3062599441173724
-0.09999999999999998,-0.98,0.2874104569952052
-0.08999999999999997,-0.98,0.2674266921046263
-0.07999999999999996,-0.98,0.24638751623594415
-0.06999999999999995,-0.98,0.22437596140442767
-0.05999999999999994,-0.98,0.20147889716087425
-0.04999999999999993,-0.98,0.1777866877571791
-0.040000000000000036,-0.98,0.15339283551991803
-0.030000000000000027,-0.98,0.1283936118393804
-0.020000000000000018,-0.98,0.10288767723037431
-0.010000000000000009,-0.98,0.07697569196424855
0.0,-0.98,0.050759918808788454
0.010000000000000009,-0.98,0.024343819443791048
0.020000000000000018,-0.98,-0.0021683538549177334
0.030000000000000027,-0.98,-0.028671969651587897
0.040000000000000036,-0.98,-0.055062430283020096
0.050000000000000044,-0.98,-0.08123558465775685
0.06000000000000005,-0.98,-0.10708813929285771
0.07000000000000006,-0.98,-0.1325180659660869
0.08000000000000007,-0.98,-0.15742500437469348
0.09000000000000008,-0.98,-0.18171065821167637
0.10000000000000009,-0.98,-0.20527918309640095
0.1100000000000001,-0.98,-0.22803756482858192
0.1200000000000001,-0.98,-0.249895986472838
0.13000000000000012,-0.98,-0.27076818282510257
0.14000000000000012,-0.98,-0.2905717808619722
0.15000000000000013,-0.98,-0.3092286248293992
0.15999999999999992,-0.98,-0.3266650846877452
0.16999999999999993,-0.98,-0.34281234669590976
0.17999999999999994,-0.98,-0.3576066849877291
0.18999999999999995,-0.98,-0.3709897130688561
0.19999999999999996,-0.98,-0.38290861424157785
0.20999999999999996,-0.98,-0.3933163500481942
0.21999999999999997,-0.98,-0.4021718459103183
0.22999999999999998,-0.98,-0.40944015323147354
0.24,-0.98,-0.41509258732323717
0.25,-0.98,-0.41910684061060033
0.26,-0.98,-0.4214670706697765
0.27,-0.98,-0.4221639627510074
0.28,-0.98,-0.42119476653962895
0.29000000000000004,-0.98,-0.418563307010304
0.30000000000000004,-0.98,-0.41427996933159394
0.31000000000000005,-0.98,-0.40836165788044754
0.32000000000000006,-0.98,-0.4008317295283419
0.33000000000000007,-0.98,-0.3917199014623868
0.3400000000000001,-0.98,-0.38106213390515925
0.3500000000000001,-0.98,-0.3689004881961374
0.3600000000000001,-0.98,-0.35528296079480703
0.3700000000000001,-0.98,-0.3402632938605652
0.3800000000000001,-0.98,-0.32390076315696764
0.3900000000000001,-0.98,-0.30625994411737245
0.40000000000000013,-0.98,-0.2874104569952053
0.4099999999999999,-0.98,-0.2674266921046263
0.41999999999999993,-0.98,-0.24638751623594393
0.42999999999999994,-0.98,-0.22437596140442798
0.43999999999999995,-0.98,-0.20147889716087408
0.44999999999999996,-0.98,-0.17778668775717915
0.45999999999999996,-0.98,-0.15339283551991795
0.47,-0.98,-0.1283936118393804
0.48,-0.98,-0.10288767723037426
0.49,-0.98,-0.07697569196424853
0.5,-0.98,-0.050759918808788385
0.51,-0.98,-0.024343819443791017
0.52,-0.98,0.0021683538549178167
0.53,-0.98,0.028671969651587886
0.54,-0.98,0.05506243028302015
0.55,-0.98,0.08123558465775682
0.56,-0.98,0.10708813929285779
0.5700000000000001,-0.98,0.13251806596608687
0.5800000000000001,-0.98,0.15742500437469337
0.5900000000000001,-0.98,0.18171065821167628
0.6000000000000001,-0.98,0.2052791830964008
0.6100000000000001,-0.98,0.22803756482858195
0.6200000000000001,-0.98,0.2498959864728381
0.6300000000000001,-0.98,0.27076818282510245
0.6400000000000001,-0.98,0.29057178086197233
0.6500000000000001,-0.98,0.3092286248293991
0.6600000000000001,-0.98,0.326665084687745
0.6699999999999999,-0.98,0.34281234669590976
0.6799999999999999,-0.98,0.3576066849877292
0.69,-0.98,0.3709897130688562
0.7,-0.98,0.38290861424157774
0.71,-0.98,0.39331635004819426
0.72,-0.98,0.4021718459103182
0.73,-0.98,0.40944015323147354
0.74,-0.98,0.4150925873232374
0.75,-0.98,0.41910684061060044
0.76,-0.98,0.42146707066977634
0.77,-0.98,0.42216396275100765
0.78,-0.98,0.42119476653962906
0.79,-0.98,0.4185633070103038
0.8,-0.98,0.4142799693315937
0.81,-0.98,0.40836165788044765
0.8200000000000001,-0.98,0.40083172952834234
0.8300000000000001,-0.98,0.3917199014623866
0.8400000000000001,-0.98,0.3810621339051594
0.8500000000000001,-0.98,0.3689004881961373
0.8600000000000001,-0.98,0.35528296079480737
0.8700000000000001,-0.98,0.3402632938605649
0.8800000000000001,-0.98,0.3239007631569677
0.8900000000000001,-0.98,0.30625994411737245
0.9000000000000001,-0.98,0.2874104569952054
0.9100000000000001,-0.98,0.2674266921046264
0.9199999999999999,-0.98,0.24638751623594432
0.9299999999999999,-0.98,0.22437596140442773
0.94,-0.98,0.20147889716087408
0.95,-0.98,0.17778668775717904
0.96,-0.98,0.15339283551991784
0.97,-0.98,0.1283936118393801
0.98,-0.98,0.10288767723037427
0.99,-0.98,0.07697569196424847
1.0,-0.98,0.05075991880878839

-1.0,-0.97,0.020161131255729832
-0.99,-0.97,-0.004263832898173642
-0.98,-0.97,-0.028671969651587966
-0.97,-0.97,-0.05296695123976437
-0.96,-0.97,-0.07705289646969567
-0.95,-0.97,-0.10083474911938106
-0.94,-0.97,-0.12421865308130714
-0.9299999999999999,-0.97,-0.14711232276962571
-0.92,-0.97,-0.16942540732919986
-0.91,-0.97,-0.19106984720915157
-0.9,-0.97,-0.21196022169367862
-0.89,-0.97,-0.23201408601859486
-0.88,-0.97,-0.2511522967431491
-0.87,-0.97,-0.26929932409302815
-0.86,-0.97,-0.28638355004186994
-0.85,-0.97,-0.3023375509548957
-0.84,-0.97,-0.3170983636791907
-0.83,-0.97,-0.3306077340305061
-0.8200000000000001,-0.97,-0.3428123466959097
-0.81,-0.97,-0.35366403564496807
-0.8,-0.97,-0.3631199742190645
-0.79,-0.97,-0.3711428441486546
-0.78,-0.97,-0.3777009828314264
-0.77,-0.97,-0.3827685082901284
-0.76,-0.97,-0.3863254213169065
-0.75,-0.97,-0.3883576844010433
-0.74,-0.97,-0.3888572771285983
-0.73,-0.97,-0.3878222278353183
-0.72,-0.97,-0.38525662138789457
-0.71,-0.97,-0.3811705830628612
-0.7,-0.97,-0.3755802385867534
-0.69,-0.97,-0.36850765049523326
-0.6799999999999999,-0.97,-0.3599807310623398
-0.6699999999999999,-0.97,-0.3500331321434955
-0.6599999999999999,-0.97,-0.33870411236700754
-0.6499999999999999,-0.97,-0.3260383821981975
-0.64,-0.97,-0.3120859274876189
-0.63,-0.97,-0.29690181219974443
-0.62,-0.97,-0.28054596110065355
-0.61,-0.97,-0.26308292326235627
-0.6,-0.97,-0.244581617317097
-0.59,-0.97,-0.22511505946699983
-0.5800000000000001,-0.97,-0.2047600753224742
-0.5700000000000001,-0.97,-0.1835969967066309
-0.56,-0.97,-0.16170934462227562
-0.55,-0.97,-0.13918349963266852
-0.54,-0.97,-0.11610836095690384
-0.53,-0.97,-0.09257499562530647
-0.52,-0.97,-0.06867627907946865
-0.51,-0.97,-0.04450652863531164
-0.5,-0.97,-0.020161131255729842
-0.49,-0.97,0.004263832898173673
-0.48,-0.97,0.028671969651587973
-0.47,-0.97,0.05296695123976442
-0.45999999999999996,-0.97,0.07705289646969574
-0.44999999999999996,-0.97,0.10083474911938117
-0.43999999999999995,-0.97,0.12421865308130726
-0.42999999999999994,-0.97,0.14711232276962583
-0.42000000000000004,-0.97,0.1694254073291998
-0.41000000000000003,-0.97,0.19106984720915154
-0.4,-0.97,0.2119602216936787
-0.39,-0.97,0.23201408601859494
-0.38,-0.97,0.251152296743149
-0.37,-0.97,0.26929932409302804
-0.36,-0.97,0.2863835500418701
-0.35,-0.97,0.3023375509548955
-0.33999999999999997,-0.97,0.31709836367919064
-0.32999999999999996,-0.97,0.33060773403050614
-0.31999999999999995,-0.97,0.3428123466959095
-0.30999999999999994,-0.97,0.3536640356449683
-0.29999999999999993,-0.97,0.36311997421906433
-0.29000000000000004,-0.97,0.3711428441486545
-0.28,-0.97,0.3777009828314266
-0.27,-0.97,0.3827685082901285
-0.26,-0.97,0.38632542131690645
-0.25,-0.97,0.3883576844010431
-0.24,-0.97,0.38885727712859863
-0.22999999999999998,-0.97,0.3878222278353183
-0.21999999999999997,-0.97,0.38525662138789457
-0.20999999999999996,-0.97,0.3811705830628609
-0.19999999999999996,-0.97,0.37558023858675316
-0.18999999999999995,-0.97,0.36850765049523326
-0.17999999999999994,-0.97,0.3599807310623397
-0.16999999999999993,-0.97,0.35003313214349563
-0.16000000000000003,-0.97,0.3387041123670076
-0.15000000000000002,-0.97,0.32603838219819703
-0.14,-0.97,0.31208592748761876
-0.13,-0.97,0.29690181219974443
-0.12,-0.97,0.28054596110065344
-0.10999999999999999,-0.97,0.26308292326235583
-0.09999999999999998,-0.97,0.2445816173170972
-0.08999999999999997,-0.97,0.22511505946699986
-0.07999999999999996,-0.97,0.20476007532247403
-0.06999999999999995,-0.97,0.18359699670663088
-0.05999999999999994,-0.97,0.16170934462227565
-0.04999999999999993,-0.97,0.13918349963266863
-0.040000000000000036,-0.97,0.1161083609569039
-0.030000000000000027,-0.97,0.0925749956253066
-0.020000000000000018,-0.97,0.06867627907946877
-0.010000000000000009,-0.97,0.04450652863531172
0.0,-0.97,0.02016113125572988
0.010000000000000009,-0.97,-0.004263832898173531
0.020000000000000018,-0.97,-0.028671969651587897
0.030000000000000027,-0.97,-0.052966951239764325
0.040000000000000036,-0.97,-0.07705289646969567
0.050000000000000044,-0.97,-0.100834749119381
0.06000000000000005,-0.97,-0.12421865308130711
0.07000000000000006,-0.97,-0.14711232276962577
0.08000000000000007,-0.97,-0.16942540732919992
0.09000000000000008,-0.97,-0.19106984720915154
0.10000000000000009,-0.97,-0.21196022169367856
0.1100000000000001,-0.97,-0.2320140860185947
0.1200000000000001,-0.97,-0.251152296743149
0.13000000000000012,-0.97,-0.2692993240930279
0.14000000000000012,-0.97,-0.2863835500418702
0.15000000000000013,-0.97,-0.30233755095489584
0.15999999999999992,-0.97,-0.3170983636791908
0.16999999999999993,-0.97,-0.33060773403050603
0.17999999999999994,-0.97,-0.3428123466959097
0.18999999999999995,-0.97,-0.353664035644968
0.19999999999999996,-0.97,-0.3631199742190646
0.20999999999999996,-0.97,-0.3711428441486545
0.21999999999999997,-0.97,-0.3777009828314265
0.22999999999999998,-0.97,-0.3827685082901283
0.24,-0.97,-0.3863254213169063
0.25,-0.97,-0.38835768440104346
0.26,-0.97,-0.3888572771285984
0.27,-0.97,-0.3878222278353183
0.28,-0.97,-0.3852566213878948
0.29000000000000004,-0.97,-0.3811705830628609
0.30000000000000004,-0.97,-0.37558023858675327
0.31000000000000005,-0.97,-0.36850765049523315
0.32000000000000006,-0.97,-0.35998073106233974
0.33000000000000007,-0.97,-0.35003313214349563
0.3400000000000001,-0.97,-0.3387041123670077
0.3500000000000001,-0.97,-0.32603838219819714
0.3600000000000001,-0.97,-0.31208592748761876
0.3700000000000001,-0.97,-0.2969018121997446
0.3800000000000001,-0.97,-0.28054596110065355
0.3900000000000001,-0.97,-0.26308292326235605
0.40000000000000013,-0.97,-0.2445816173170972
0.4099999999999999,-0.97,-0.22511505946699967
0.41999999999999993,-0.97,-0.20476007532247437
0.42999999999999994,-0.97,-0.18359699670663077
0.43999999999999995,-0.97,-0.1617093446222758
0.44999999999999996,-0.97,-0.13918349963266857
0.45999999999999996,-0.97,-0.11610836095690388
0.47,-0.97,-0.09257499562530655
0.48,-0.97,-0.06867627907946874
0.49,-0.97,-0.04450652863531167
0.5,-0.97,-0.020161131255729846
0.51,-0.97,0.004263832898173614
0.52,-0.97,0.028671969651587897
0.53,-0.97,0.052966951239764345
0.54,-0.97,0.07705289646969565
0.55,-0.97,0.10083474911938108
0.56,-0.97,0.12421865308130714
0.5700000000000001,-0.97,0.1471123227696257
0.5800000000000001,-0.97,0.16942540732919978
0.5900000000000001,-0.97,0.1910698472091514
0.6000000000000001,-0.97,0.21196022169367854