TITLE = "Solution" 
VARIABLES = "x", "y", "sol" 
ZONE STRANDID=1, SOLUTIONTIME= 0.10000000000000002, I= 201, J =201, DATAPACKING=POINT 
-1.0,-1.0,0.32612435504979076
-0.99,-1.0,0.295622156751167
-0.98,-1.0,0.26395327285676307
-0.97,-1.0,0.2312426859831732
-0.96,-1.0,0.19761948987274183
-0.95,-1.0,0.16321637991953974
-0.94,-1.0,0.1281691294812663
-0.9299999999999999,-1.0,0.09261605404383574
-0.92,-1.0,0.05669746535334445
-0.91,-1.0,0.02055511766971153
-0.9,-1.0,-0.015668351672623756
-0.89,-1.0,-0.05182998518909618
-0.88,-1.0,-0.08778706943289508
-0.87,-1.0,-0.12339769821973935
-0.86,-1.0,-0.15852133266675628
-0.85,-1.0,-0.1930193558352454
-0.84,-1.0,-0.2267556197884085
-0.83,-1.0,-0.2595969829050554
-0.8200000000000001,-1.0,-0.2914138353287562
-0.81,-1.0,-0.32208061047873177
-0.8,-1.0,-0.3514762806037822
-0.79,-1.0,-0.3794848344235281
-0.78,-1.0,-0.4059957349719339
-0.77,-1.0,-0.43090435583621345
-0.76,-1.0,-0.454112394069482
-0.75,-1.0,-0.4755282581475768
-0.74,-1.0,-0.4950674294389592
-0.73,-1.0,-0.5126527957611406
-0.72,-1.0,-0.5282149557072368
-0.71,-1.0,-0.541692492541615
-0.7,-1.0,-0.5530322165836913
-0.69,-1.0,-0.5621893751232983
-0.6799999999999999,-1.0,-0.5691278290391883
-0.6699999999999999,-1.0,-0.5738201954236333
-0.6599999999999999,-1.0,-0.5762479556502519
-0.6499999999999999,-1.0,-0.5764015284585682
-0.64,-1.0,-0.5742803077668677
-0.63,-1.0,-0.569892665064128
-0.62,-1.0,-0.5632559163715731
-0.61,-1.0,-0.5543962539042502
-0.6,-1.0,-0.5433486427023235
-0.59,-1.0,-0.5301566826400332
-0.5800000000000001,-1.0,-0.5148724363569123
-0.5700000000000001,-1.0,-0.49755622379033193
-0.56,-1.0,-0.4782763841202674
-0.55,-1.0,-0.457109006065776
-0.54,-1.0,-0.4341376275975831
-0.53,-1.0,-0.4094529062518783
-0.52,-1.0,-0.3831522613464368
-0.51,-1.0,-0.3553394895110786
-0.5,-1.0,-0.3261243550497908
-0.49,-1.0,-0.295622156751167
-0.48,-1.0,-0.263953272856763
-0.47,-1.0,-0.23124268598317302
-0.45999999999999996,-1.0,-0.19761948987274175
-0.44999999999999996,-1.0,-0.16321637991953963
-0.43999999999999995,-1.0,-0.12816912948126624
-0.42999999999999994,-1.0,-0.09261605404383569
-0.42000000000000004,-1.0,-0.05669746535334439
-0.41000000000000003,-1.0,-0.020555117669711475
-0.4,-1.0,0.01566835167262379
-0.39,-1.0,0.05182998518909618
-0.38,-1.0,0.08778706943289512
-0.37,-1.0,0.12339769821973944
-0.36,-1.0,0.15852133266675628
-0.35,-1.0,0.1930193558352454
-0.33999999999999997,-1.0,0.22675561978840852
-0.32999999999999996,-1.0,0.25959698290505545
-0.31999999999999995,-1.0,0.2914138353287562
-0.30999999999999994,-1.0,0.3220806104787319
-0.29999999999999993,-1.0,0.3514762806037824
-0.29000000000000004,-1.0,0.3794848344235281
-0.28,-1.0,0.4059957349719339
-0.27,-1.0,0.4309043558362135
-0.26,-1.0,0.4541123940694819
-0.25,-1.0,0.47552825814757677
-0.24,-1.0,0.4950674294389592
-0.22999999999999998,-1.0,0.5126527957611405
-0.21999999999999997,-1.0,0.5282149557072366
-0.20999999999999996,-1.0,0.5416924925416151
-0.19999999999999996,-1.0,0.5530322165836912
-0.18999999999999995,-1.0,0.5621893751232987
-0.17999999999999994,-1.0,0.5691278290391883
-0.16999999999999993,-1.0,0.5738201954236333
-0.16000000000000003,-1.0,0.5762479556502518
-0.15000000000000002,-1.0,0.576401528458568
-0.14,-1.0,0.5742803077668678
-0.13,-1.0,0.5698926650641281
-0.12,-1.0,0.5632559163715729
-0.10999999999999999,-1.0,0.5543962539042502
-0.09999999999999998,-1.0,0.5433486427023236
-0.08999999999999997,-1.0,0.5301566826400332
-0.07999999999999996,-1.0,0.5148724363569124
-0.06999999999999995,-1.0,0.49755622379033204
-0.05999999999999994,-1.0,0.47827638412026746
-0.04999999999999993,-1.0,0.4571090060657759
-0.040000000000000036,-1.0,0.4341376275975832
-0.030000000000000027,-1.0,0.40945290625187836
-0.020000000000000018,-1.0,0.38315226134643676
-0.010000000000000009,-1.0,0.3553394895110785
0.0,-1.0,0.32612435504979065
0.010000000000000009,-1.0,0.29562215675116665
0.020000000000000018,-1.0,0.26395327285676273
0.030000000000000027,-1.0,0.23124268598317282
0.040000000000000036,-1.0,0.19761948987274147
0.050000000000000044,-1.0,0.16321637991953947
0.06000000000000005,-1.0,0.12816912948126613
0.07000000000000006,-1.0,0.09261605404383563
0.08000000000000007,-1.0,0.0566974653533444
0.09000000000000008,-1.0,0.02055511766971152
0.10000000000000009,-1.0,-0.01566835167262372
0.1100000000000001,-1.0,-0.05182998518909611
0.1200000000000001,-1.0,-0.08778706943289499
0.13000000000000012,-1.0,-0.12339769821973932
0.14000000000000012,-1.0,-0.15852133266675614
0.15000000000000013,-1.0,-0.1930193558352454
0.15999999999999992,-1.0,-0.22675561978840858
0.16999999999999993,-1.0,-0.25959698290505556
0.17999999999999994,-1.0,-0.2914138353287563
0.18999999999999995,-1.0,-0.3220806104787321
0.19999999999999996,-1.0,-0.3514762806037824
0.20999999999999996,-1.0,-0.3794848344235283
0.21999999999999997,-1.0,-0.4059957349719341
0.22999999999999998,-1.0,-0.43090435583621356
0.24,-1.0,-0.454112394069482
0.25,-1.0,-0.4755282581475768
0.26,-1.0,-0.495067429438959
0.27,-1.0,-0.5126527957611404
0.28,-1.0,-0.5282149557072366
0.29000000000000004,-1.0,-0.541692492541615
0.30000000000000004,-1.0,-0.5530322165836912
0.31000000000000005,-1.0,-0.5621893751232983
0.32000000000000006,-1.0,-0.5691278290391883
0.33000000000000007,-1.0,-0.5738201954236333
0.3400000000000001,-1.0,-0.5762479556502518
0.3500000000000001,-1.0,-0.576401528458568
0.3600000000000001,-1.0,-0.5742803077668679
0.3700000000000001,-1.0,-0.5698926650641282
0.3800000000000001,-1.0,-0.5632559163715731
0.3900000000000001,-1.0,-0.5543962539042502
0.40000000000000013,-1.0,-0.5433486427023235
0.4099999999999999,-1.0,-0.5301566826400335
0.41999999999999993,-1.0,-0.5148724363569122
0.42999999999999994,-1.0,-0.49755622379033193
0.43999999999999995,-1.0,-0.47827638412026763
0.44999999999999996,-1.0,-0.45710900606577587
0.45999999999999996,-1.0,-0.434137627597583
0.47,-1.0,-0.40945290625187825
0.48,-1.0,-0.3831522613464367
0.49,-1.0,-0.3553394895110783
0.5,-1.0,-0.3261243550497907
0.51,-1.0,-0.295622156751167
0.52,-1.0,-0.26395327285676295
0.53,-1.0,-0.2312426859831731
0.54,-1.0,-0.19761948987274183
0.55,-1.0,-0.1632163799195398
0.56,-1.0,-0.12816912948126633
0.5700000000000001,-1.0,-0.09261605404383581
0.5800000000000001,-1.0,-0.056697465353344516
0.5900000000000001,-1.0,-0.020555117669711624
0.6000000000000001,-1.0,0.01566835167262366
0.6100000000000001,-1.0,0.05182998518909606
0.6200000000000001,-1.0,0.08778706943289494
0.6300000000000001,-1.0,0.12339769821973928
0.6400000000000001,-1.0,0.1585213326667561
0.6500000000000001,-1.0,0.19301935583524538
0.6600000000000001,-1.0,0.22675561978840847
0.6699999999999999,-1.0,0.2595969829050554
0.6799999999999999,-1.0,0.2914138353287562
0.69,-1.0,0.32208061047873193
0.7,-1.0,0.3514762806037824
0.71,-1.0,0.37948483442352815
0.72,-1.0,0.4059957349719341
0.73,-1.0,0.43090435583621356
0.74,-1.0,0.45411239406948195
0.75,-1.0,0.4755282581475767
0.76,-1.0,0.49506742943895915
0.77,-1.0,0.5126527957611404
0.78,-1.0,0.5282149557072366
0.79,-1.0,0.541692492541615
0.8,-1.0,0.5530322165836912
0.81,-1.0,0.5621893751232985
0.8200000000000001,-1.0,0.5691278290391882
0.8300000000000001,-1.0,0.5738201954236333
0.8400000000000001,-1.0,0.5762479556502518
0.8500000000000001,-1.0,0.576401528458568
0.8600000000000001,-1.0,0.5742803077668677
0.8700000000000001,-1.0,0.5698926650641281
0.8800000000000001,-1.0,0.5632559163715731
0.8900000000000001,-1.0,0.5543962539042503
0.9000000000000001,-1.0,0.5433486427023236
0.9100000000000001,-1.0,0.5301566826400332
0.9199999999999999,-1.0,0.5148724363569124
0.9299999999999999,-1.0,0.49755622379033193
0.94,-1.0,0.4782763841202675
0.95,-1.0,0.4571090060657759
0.96,-1.0,0.43413762759758295
0.97,-1.0,0.40945290625187825
0.98,-1.0,0.38315226134643676
0.99,-1.0,0.35533948951107847
1.0,-1.0,0.32612435504979076

-1.0,-0.99,0.295622156751167
-0.99,-0.99,0.2677432064547284
-0.98,-0.99,0.2388075960426485
-0.97,-0.99,0.20892952114980118
-0.96,-0.99,0.1782268968877943
-0.95,-0.99,0.14682089248789532
-0.94,-0.99,0.11483545310143198
-0.9299999999999999,-0.99,0.0823968106449054
-0.92,-0.99,0.04963298562028545
-0.91,-0.99,0.016673281876576452
-0.9,-0.99,-0.016352223693401453
-0.89,-0.99,-0.049313194507081874
-0.88,-0.99,-0.0820795486710984
-0.87,-0.99,-0.11452197235508903
-0.86,-0.99,-0.14651243013430643
-0.85,-0.99,-0.17792467028694608
-0.84,-0.99,-0.208634723052013
-0.83,-0.99,-0.23852138988133187
-0.8200000000000001,-0.99,-0.26746672175484687
-0.81,-0.99,-0.2953564846715173
-0.8,-0.99,-0.3220806104787319
-0.79,-0.99,-0.3475336312610212
-0.78,-0.99,-0.37161509557373673
-0.77,-0.99,-0.39422996487901074
-0.76,-0.99,-0.4152889886194461
-0.75,-0.99,-0.43470905644929225
-0.74,-0.99,-0.4524135262330099
-0.73,-0.99,-0.4683325265167655
-0.72,-0.99,-0.48240323227913834
-0.71,-0.99,-0.49457011287277863
-0.7,-0.99,-0.5047851511785022
-0.69,-0.99,-0.5130080331069236
-0.6799999999999999,-0.99,-0.5192063066997483
-0.6699999999999999,-0.99,-0.5233555102028276
-0.6599999999999999,-0.99,-0.5254392686055257
-0.6499999999999999,-0.99,-0.5254493582654054
-0.64,-0.99,-0.5233857393631891
-0.63,-0.99,-0.5192565560599061
-0.62,-0.99,-0.5130781043556094
-0.61,-0.99,-0.5048747677765105
-0.6,-0.99,-0.49467892114433876
-0.59,-0.99,-0.4825308028077122
-0.5800000000000001,-0.99,-0.46847835583975816
-0.5700000000000001,-0.99,-0.45257703882870665
-0.56,-0.99,-0.4348896070081799
-0.55,-0.99,-0.4154858645909542
-0.54,-0.99,-0.3944423892836239
-0.53,-0.99,-0.37184223006937756
-0.52,-0.99,-0.3477745794516032
-0.51,-0.99,-0.3223344214518256
-0.5,-0.99,-0.29562215675116704
-0.49,-0.99,-0.26774320645472827
-0.48,-0.99,-0.2388075960426484
-0.47,-0.99,-0.2089295211498011
-0.45999999999999996,-0.99,-0.1782268968877942
-0.44999999999999996,-0.99,-0.1468208924878952
-0.43999999999999995,-0.99,-0.11483545310143191
-0.42999999999999994,-0.99,-0.08239681064490532
-0.42000000000000004,-0.99,-0.0496329856202854
-0.41000000000000003,-0.99,-0.016673281876576424
-0.4,-0.99,0.01635222369340147
-0.39,-0.99,0.04931319450708192
-0.38,-0.99,0.08207954867109846
-0.37,-0.99,0.11452197235508903
-0.36,-0.99,0.14651243013430645
-0.35,-0.99,0.17792467028694614
-0.33999999999999997,-0.99,0.20863472305201303
-0.32999999999999996,-0.99,0.23852138988133192
-0.31999999999999995,-0.99,0.26746672175484687
-0.30999999999999994,-0.99,0.29535648467151737
-0.29999999999999993,-0.99,0.3220806104787319
-0.29000000000000004,-0.99,0.3475336312610212
-0.28,-0.99,0.37161509557373673
-0.27,-0.99,0.3942299648790106
-0.26,-0.99,0.415288988619446
-0.25,-0.99,0.43470905644929225
-0.24,-0.99,0.4524135262330099
-0.22999999999999998,-0.99,0.4683325265167654
-0.21999999999999997,-0.99,0.4824032322791384
-0.20999999999999996,-0.99,0.4945701128727787
-0.19999999999999996,-0.99,0.5047851511785024
-0.18999999999999995,-0.99,0.5130080331069234
-0.17999999999999994,-0.99,0.5192063066997483
-0.16999999999999993,-0.99,0.5233555102028276
-0.16000000000000003,-0.99,0.5254392686055256
-0.15000000000000002,-0.99,0.5254493582654054
-0.14,-0.99,0.5233857393631891
-0.13,-0.99,0.5192565560599058
-0.12,-0.99,0.5130781043556094
-0.10999999999999999,-0.99,0.5048747677765105
-0.09999999999999998,-0.99,0.4946789211443387
-0.08999999999999997,-0.99,0.48253080280771227
-0.07999999999999996,-0.99,0.46847835583975833
-0.06999999999999995,-0.99,0.4525770388287067
-0.05999999999999994,-0.99,0.4348896070081799
-0.04999999999999993,-0.99,0.4154858645909544
-0.040000000000000036,-0.99,0.394442389283624
-0.030000000000000027,-0.99,0.37184223006937767
-0.020000000000000018,-0.99,0.3477745794516033
-0.010000000000000009,-0.99,0.32233442145182545
0.0,-0.99,0.2956221567511669
0.010000000000000009,-0.99,0.26774320645472816
0.020000000000000018,-0.99,0.23880759604264823
0.030000000000000027,-0.99,0.20892952114980085
0.040000000000000036,-0.99,0.17822689688779403
0.050000000000000044,-0.99,0.1468208924878951
0.06000000000000005,-0.99,0.11483545310143178
0.07000000000000006,-0.99,0.08239681064490528
0.08000000000000007,-0.99,0.0496329856202854
0.09000000000000008,-0.99,0.016673281876576473
0.10000000000000009,-0.99,-0.01635222369340141
0.1100000000000001,-0.99,-0.049313194507081826
0.1200000000000001,-0.99,-0.08207954867109836
0.13000000000000012,-0.99,-0.11452197235508893
0.14000000000000012,-0.99,-0.14651243013430643
0.15000000000000013,-0.99,-0.17792467028694608
0.15999999999999992,-0.99,-0.20863472305201303
0.16999999999999993,-0.99,-0.23852138988133192
0.17999999999999994,-0.99,-0.267466721754847
0.18999999999999995,-0.99,-0.2953564846715174
0.19999999999999996,-0.99,-0.3220806104787321
0.20999999999999996,-0.99,-0.3475336312610213
0.21999999999999997,-0.99,-0.37161509557373684
0.22999999999999998,-0.99,-0.39422996487901074
0.24,-0.99,-0.41528898861944613
0.25,-0.99,-0.43470905644929203
0.26,-0.99,-0.4524135262330098
0.27,-0.99,-0.4683325265167654
0.28,-0.99,-0.4824032322791383
0.29000000000000004,-0.99,-0.4945701128727785
0.30000000000000004,-0.99,-0.5047851511785021
0.31000000000000005,-0.99,-0.5130080331069234
0.32000000000000006,-0.99,-0.5192063066997483
0.33000000000000007,-0.99,-0.5233555102028276
0.3400000000000001,-0.99,-0.5254392686055256
0.3500000000000001,-0.99,-0.5254493582654055
0.3600000000000001,-0.99,-0.5233857393631892
0.3700000000000001,-0.99,-0.5192565560599061
0.3800000000000001,-0.99,-0.5130781043556093
0.3900000000000001,-0.99,-0.5048747677765104
0.40000000000000013,-0.99,-0.49467892114433887
0.4099999999999999,-0.99,-0.4825308028077122
0.41999999999999993,-0.99,-0.4684783558397582
0.42999999999999994,-0.99,-0.45257703882870687
0.43999999999999995,-0.99,-0.4348896070081799
0.44999999999999996,-0.99,-0.41548586459095416
0.45999999999999996,-0.99,-0.39444238928362385
0.47,-0.99,-0.37184223006937744
0.48,-0.99,-0.34777457945160306
0.49,-0.99,-0.32233442145182545
0.5,-0.99,-0.29562215675116704
0.51,-0.99,-0.2677432064547282
0.52,-0.99,-0.2388075960426485
0.53,-0.99,-0.20892952114980118
0.54,-0.99,-0.1782268968877943
0.55,-0.99,-0.1468208924878953
0.56,-0.99,-0.11483545310143202
0.5700000000000001,-0.99,-0.08239681064490544
0.5800000000000001,-0.99,-0.04963298562028553
0.5900000000000001,-0.99,-0.016673281876576535
0.6000000000000001,-0.99,0.01635222369340135
0.6100000000000001,-0.99,0.04931319450708177
0.6200000000000001,-0.99,0.08207954867109832
0.6300000000000001,-0.99,0.1145219723550889
0.6400000000000001,-0.99,0.14651243013430637
0.6500000000000001,-0.99,0.17792467028694603
0.6600000000000001,-0.99,0.20863472305201294
0.6699999999999999,-0.99,0.2385213898813319
0.6799999999999999,-0.99,0.2674667217548468
0.69,-0.99,0.2953564846715173
0.7,-0.99,0.322080610478732
0.71,-0.99,0.3475336312610213
0.72,-0.99,0.37161509557373684
0.73,-0.99,0.3942299648790107
0.74,-0.99,0.4152889886194461
0.75,-0.99,0.4347090564492922
0.76,-0.99,0.4524135262330098
0.77,-0.99,0.4683325265167654
0.78,-0.99,0.4824032322791383
0.79,-0.99,0.4945701128727787
0.8,-0.99,0.5047851511785022
0.81,-0.99,0.5130080331069233
0.8200000000000001,-0.99,0.5192063066997483
0.8300000000000001,-0.99,0.5233555102028276
0.8400000000000001,-0.99,0.5254392686055256
0.8500000000000001,-0.99,0.5254493582654054
0.8600000000000001,-0.99,0.5233857393631891
0.8700000000000001,-0.99,0.5192565560599061
0.8800000000000001,-0.99,0.5130781043556095
0.8900000000000001,-0.99,0.5048747677765106
0.9000000000000001,-0.99,0.4946789211443388
0.9100000000000001,-0.99,0.4825308028077124
0.9199999999999999,-0.99,0.4684783558397582
0.9299999999999999,-0.99,0.4525770388287068
0.94,-0.99,0.4348896070081799
0.95,-0.99,0.41548586459095416
0.96,-0.99,0.3944423892836239
0.97,-0.99,0.37184223006937756
0.98,-0.99,0.34777457945160317
0.99,-0.99,0.3223344214518255
1.0,-0.99,0.295622156751167

-1.0,-0.98,0.26395327285676307
-0.99,-0.98,0.2388075960426485
-0.98,-0.98,0.2127194547477665
-0.97,-0.98,0.18579180694726966
-0.96,-0.98,0.15813092376495463
-0.95,-0.98,0.12984597006968654
-0.94,-0.98,0.1010485736515344
-0.9299999999999999,-0.98,0.07185238467788166
-0.92,-0.98,0.042372627168137375
-0.91,-0.98,0.012725644257172458
-0.9,-0.98,-0.01697156095788168
-0.89,-0.98,-0.04660178717540371
-0.88,-0.98,-0.07604809742927585
-0.87,-0.98,-0.1051942805856655
-0.86,-0.98,-0.1339253099752789
-0.85,-0.98,-0.16212779735107402
-0.84,-0.98,-0.18969044037986948
-0.83,-0.98,-0.21650446190180445
-0.8200000000000001,-0.98,-0.242464039224093
-0.81,-0.98,-0.26746672175484687
-0.8,-0.98,-0.2914138353287563
-0.79,-0.98,-0.3142108716289405
-0.78,-0.98,-0.3357678611680981
-0.77,-0.98,-0.35599972835696936
-0.76,-0.98,-0.37482662725882093
-0.75,-0.98,-0.3921742567048792
-0.74,-0.98,-0.40797415352709854
-0.73,-0.98,-0.42216396275100776
-0.72,-0.98,-0.4346876836823074
-0.71,-0.98,-0.4454958909160256
-0.7,-0.98,-0.45454592939601096
-0.69,-0.98,-0.46180208275495216
-0.6799999999999999,-0.98,-0.46723571427056265
-0.6699999999999999,-0.98,-0.4708253798816407
-0.6599999999999999,-0.98,-0.4725569128179811
-0.6499999999999999,-0.98,-0.4724234795101468
-0.64,-0.98,-0.4704256065584436
-0.63,-0.98,-0.46657117865467057
-0.62,-0.98,-0.46087540746484346
-0.61,-0.98,-0.4533607715956979
-0.6,-0.98,-0.4440569278818992
-0.59,-0.98,-0.43300059434406357
-0.5800000000000001,-0.98,-0.42023540527950665
-0.5700000000000001,-0.98,-0.4058117390576062
-0.56,-0.98,-0.38978651929939345
-0.55,-0.98,-0.3722229902260279
-0.54,-0.98,-0.3531904670627487
-0.53,-0.98,-0.3327640624833488
-0.52,-0.98,-0.31102439017476635
-0.51,-0.98,-0.28805724669169175
-0.5,-0.98,-0.26395327285676307
-0.49,-0.98,-0.23880759604264848
-0.48,-0.98,-0.21271945474776638
-0.47,-0.98,-0.18579180694726957
-0.45999999999999996,-0.98,-0.15813092376495458
-0.44999999999999996,-0.98,-0.1298459700696865
-0.43999999999999995,-0.98,-0.1010485736515343
-0.42999999999999994,-0.98,-0.0718523846778816
-0.42000000000000004,-0.98,-0.04237262716813735
-0.41000000000000003,-0.98,-0.01272564425717243
-0.4,-0.98,0.016971560957881715
-0.39,-0.98,0.04660178717540376
-0.38,-0.98,0.07604809742927585
-0.37,-0.98,0.10519428058566552
-0.36,-0.98,0.1339253099752789
-0.35,-0.98,0.16212779735107408
-0.33999999999999997,-0.98,0.1896904403798695
-0.32999999999999996,-0.98,0.21650446190180445
-0.31999999999999995,-0.98,0.24246403922409301
-0.30999999999999994,-0.98,0.26746672175484687
-0.29999999999999993,-0.98,0.2914138353287563
-0.29000000000000004,-0.98,0.3142108716289405
-0.28,-0.98,0.3357678611680979
-0.27,-0.98,0.35599972835696925
-0.26,-0.98,0.3748266272588209
-0.25,-0.98,0.3921742567048792
-0.24,-0.98,0.40797415352709837
-0.22999999999999998,-0.98,0.4221639627510077
-0.21999999999999997,-0.98,0.43468768368230737
-0.20999999999999996,-0.98,0.4454958909160257
-0.19999999999999996,-0.98,0.45454592939601096
-0.18999999999999995,-0.98,0.46180208275495216
-0.17999999999999994,-0.98,0.46723571427056265
-0.16999999999999993,-0.98,0.4708253798816406
-0.16000000000000003,-0.98,0.47255691281798123
-0.15000000000000002,-0.98,0.47242347951014685
-0.14,-0.98,0.47042560655844345
-0.13,-0.98,0.46657117865467057
-0.12,-0.98,0.46087540746484346
-0.10999999999999999,-0.98,0.4533607715956979
-0.09999999999999998,-0.98,0.44405692788189927
-0.08999999999999997,-0.98,0.4330005943440638
-0.07999999999999996,-0.98,0.42023540527950676
-0.06999999999999995,-0.98,0.4058117390576062
-0.05999999999999994,-0.98,0.38978651929939356
-0.04999999999999993,-0.98,0.37222299022602806
-0.040000000000000036,-0.98,0.35319046706274887
-0.030000000000000027,-0.98,0.33276406248334883
-0.020000000000000018,-0.98,0.31102439017476635
-0.010000000000000009,-0.98,0.28805724669169164
0.0,-0.98,0.26395327285676295
0.010000000000000009,-0.98,0.23880759604264837
0.020000000000000018,-0.98,0.2127194547477662
0.030000000000000027,-0.98,0.1857918069472694
0.040000000000000036,-0.98,0.1581309237649544
0.050000000000000044,-0.98,0.12984597006968632
0.06000000000000005,-0.98,0.10104857365153422
0.07000000000000006,-0.98,0.07185238467788155
0.08000000000000007,-0.98,0.042372627168137375
0.09000000000000008,-0.98,0.01272564425717247
0.10000000000000009,-0.98,-0.016971560957881642
0.1100000000000001,-0.98,-0.04660178717540366
0.1200000000000001,-0.98,-0.07604809742927578
0.13000000000000012,-0.98,-0.10519428058566548
0.14000000000000012,-0.98,-0.13392530997527885
0.15000000000000013,-0.98,-0.16212779735107402
0.15999999999999992,-0.98,-0.18969044037986948
0.16999999999999993,-0.98,-0.21650446190180453
0.17999999999999994,-0.98,-0.24246403922409315
0.18999999999999995,-0.98,-0.267466721754847
0.19999999999999996,-0.98,-0.2914138353287564
0.20999999999999996,-0.98,-0.31421087162894057
0.21999999999999997,-0.98,-0.3357678611680982
0.22999999999999998,-0.98,-0.35599972835696947
0.24,-0.98,-0.3748266272588209
0.25,-0.98,-0.39217425670487915
0.26,-0.98,-0.4079741535270983
0.27,-0.98,-0.4221639627510077
0.28,-0.98,-0.43468768368230726
0.29000000000000004,-0.98,-0.4454958909160255
0.30000000000000004,-0.98,-0.4545459293960108
0.31000000000000005,-0.98,-0.46180208275495216
0.32000000000000006,-0.98,-0.46723571427056265
0.33000000000000007,-0.98,-0.4708253798816406
0.3400000000000001,-0.98,-0.4725569128179813
0.3500000000000001,-0.98,-0.4724234795101468
0.3600000000000001,-0.98,-0.4704256065584436
0.3700000000000001,-0.98,-0.46657117865467057
0.3800000000000001,-0.98,-0.46087540746484346
0.3900000000000001,-0.98,-0.453360771595698
0.40000000000000013,-0.98,-0.44405692788189927
0.4099999999999999,-0.98,-0.4330005943440637
0.41999999999999993,-0.98,-0.42023540527950676
0.42999999999999994,-0.98,-0.40581173905760626
0.43999999999999995,-0.98,-0.38978651929939345
0.44999999999999996,-0.98,-0.3722229902260279
0.45999999999999996,-0.98,-0.3531904670627487
0.47,-0.98,-0.33276406248334867
0.48,-0.98,-0.31102439017476624
0.49,-0.98,-0.28805724669169175
0.5,-0.98,-0.263953272856763
0.51,-0.98,-0.2388075960426485
0.52,-0.98,-0.2127194547477665
0.53,-0.98,-0.18579180694726968
0.54,-0.98,-0.15813092376495463
0.55,-0.98,-0.12984597006968657
0.56,-0.98,-0.10104857365153441
0.5700000000000001,-0.98,-0.07185238467788171
0.5800000000000001,-0.98,-0.04237262716813745
0.5900000000000001,-0.98,-0.012725644257172541
0.6000000000000001,-0.98,0.016971560957881583
0.6100000000000001,-0.98,0.04660178717540364
0.6200000000000001,-0.98,0.07604809742927575
0.6300000000000001,-0.98,0.10519428058566543
0.6400000000000001,-0.98,0.13392530997527882
0.6500000000000001,-0.98,0.16212779735107402
0.6600000000000001,-0.98,0.18969044037986948
0.6699999999999999,-0.98,0.21650446190180445
0.6799999999999999,-0.98,0.24246403922409301
0.69,-0.98,0.267466721754847
0.7,-0.98,0.2914138353287564
0.71,-0.98,0.3142108716289407
0.72,-0.98,0.3357678611680981
0.73,-0.98,0.35599972835696936
0.74,-0.98,0.37482662725882093
0.75,-0.98,0.39217425670487915
0.76,-0.98,0.4079741535270984
0.77,-0.98,0.42216396275100765
0.78,-0.98,0.43468768368230737
0.79,-0.98,0.4454958909160255
0.8,-0.98,0.45454592939601085
0.81,-0.98,0.46180208275495216
0.8200000000000001,-0.98,0.46723571427056265
0.8300000000000001,-0.98,0.4708253798816407
0.8400000000000001,-0.98,0.4725569128179811
0.8500000000000001,-0.98,0.47242347951014674
0.8600000000000001,-0.98,0.4704256065584437
0.8700000000000001,-0.98,0.4665711786546707
0.8800000000000001,-0.98,0.46087540746484346
0.8900000000000001,-0.98,0.453360771595698
0.9000000000000001,-0.98,0.4440569278818994
0.9100000000000001,-0.98,0.4330005943440637
0.9199999999999999,-0.98,0.4202354052795068
0.9299999999999999,-0.98,0.4058117390576062
0.94,-0.98,0.3897865192993935
0.95,-0.98,0.37222299022602784
0.96,-0.98,0.35319046706274876
0.97,-0.98,0.3327640624833487
0.98,-0.98,0.3110243901747663
0.99,-0.98,0.28805724669169175
1.0,-0.98,0.26395327285676307

-1.0,-0.97,0.23124268598317313
-0.99,-0.97,0.20892952114980118
-0.98,-0.97,0.1857918069472697
-0.97,-0.97,0.16192085736291995
-0.96,-0.97,0.13741088012916192
-0.95,-0.97,0.11235860492859376
-0.94,-0.97,0.08686290164613622
-0.9299999999999999,-0.97,0.06102439017476635
-0.92,-0.97,0.03494504331476866
-0.91,-0.97,0.008727784333679234
-0.9,-0.97,-0.017523919224829824
-0.89,-0.97,-0.04370646388007565
-0.88,-0.97,-0.06971651908997081
-0.87,-0.97,-0.09545143504946575
-0.86,-0.97,-0.12080964780243313
-0.85,-0.97,-0.14569108006820228
-0.84,-0.97,-0.1699975362008655
-0.83,-0.97,-0.1936330897226306
-0.8200000000000001,-0.97,-0.21650446190180445
-0.81,-0.97,-0.23852138988133195
-0.8,-0.97,-0.2595969829050555
-0.79,-0.97,-0.2796480652358331
-0.78,-0.97,-0.29859550441217314
-0.77,-0.97,-0.3163645235479082
-0.76,-0.97,-0.3328849964424024
-0.75,-0.97,-0.3480917243366272
-0.74,-0.97,-0.36192469322287707
-0.73,-0.97,-0.3743293106926404
-0.72,-0.97,-0.3852566213878949
-0.71,-0.97,-0.39466350020553964
-0.7,-0.97,-0.40251282249247544
-0.69,-0.97,-0.40877361055965
-0.6799999999999999,-0.97,-0.4134211559368445
-0.6699999999999999,-0.97,-0.4164371168857163
-0.6599999999999999,-0.97,-0.4178095907862618
-0.6499999999999999,-0.97,-0.41753316111101924
-0.64,-0.97,-0.41560891880162826
-0.63,-0.97,-0.4120444579633811
-0.62,-0.97,-0.40685384589475904
-0.61,-0.97,-0.40005756757023203
-0.6,-0.97,-0.39168244479542275
-0.59,-0.97,-0.38176153035369365
-0.5800000000000001,-0.97,-0.37033397756191155
-0.5700000000000001,-0.97,-0.35744488575019345
-0.56,-0.97,-0.34314512227545413
-0.55,-0.97,-0.327491121771188
-0.54,-0.97,-0.3105446634257527
-0.53,-0.97,-0.2923726271681375
-0.52,-0.97,-0.27304672972343735
-0.51,-0.97,-0.2526432415797038
-0.5,-0.97,-0.2312426859831732
-0.49,-0.97,-0.20892952114980112
-0.48,-0.97,-0.1857918069472696
-0.47,-0.97,-0.1619208573629199
-0.45999999999999996,-0.97,-0.13741088012916186
-0.44999999999999996,-0.97,-0.11235860492859366
-0.43999999999999995,-0.97,-0.08686290164613618
-0.42999999999999994,-0.97,-0.061024390174766324
-0.42000000000000004,-0.97,-0.03494504331476863
-0.41000000000000003,-0.97,-0.008727784333679201
-0.4,-0.97,0.017523919224829865
-0.39,-0.97,0.04370646388007567
-0.38,-0.97,0.06971651908997083
-0.37,-0.97,0.09545143504946577
-0.36,-0.97,0.12080964780243311
-0.35,-0.97,0.14569108006820233
-0.33999999999999997,-0.97,0.1699975362008655
-0.32999999999999996,-0.97,0.1936330897226306
-0.31999999999999995,-0.97,0.2165044619018045
-0.30999999999999994,-0.97,0.23852138988133198
-0.29999999999999993,-0.97,0.25959698290505545
-0.29000000000000004,-0.97,0.27964806523583297
-0.28,-0.97,0.2985955044121731
-0.27,-0.97,0.3163645235479082
-0.26,-0.97,0.33288499644240244
-0.25,-0.97,0.34809172433662705
-0.24,-0.97,0.361924693222877
-0.22999999999999998,-0.97,0.37432931069264047
-0.21999999999999997,-0.97,0.38525662138789496
-0.20999999999999996,-0.97,0.39466350020553953
-0.19999999999999996,-0.97,0.40251282249247544
-0.18999999999999995,-0.97,0.40877361055965006
-0.17999999999999994,-0.97,0.41342115593684436
-0.16999999999999993,-0.97,0.4164371168857164
-0.16000000000000003,-0.97,0.4178095907862618
-0.15000000000000002,-0.97,0.41753316111101924
-0.14,-0.97,0.4156089188016283
-0.13,-0.97,0.41204445796338107
-0.12,-0.97,0.4068538458947591
-0.10999999999999999,-0.97,0.4000575675702322
-0.09999999999999998,-0.97,0.3916824447954229
-0.08999999999999997,-0.97,0.38176153035369376
-0.07999999999999996,-0.97,0.37033397756191166
-0.06999999999999995,-0.97,0.35744488575019356
-0.05999999999999994,-0.97,0.34314512227545435
-0.04999999999999993,-0.97,0.3274911217711881
-0.040000000000000036,-0.97,0.3105446634257527
-0.030000000000000027,-0.97,0.2923726271681375
-0.020000000000000018,-0.97,0.2730467297234372
-0.010000000000000009,-0.97,0.2526432415797037
0.0,-0.97,0.2312426859831731
0.010000000000000009,-0.97,0.208929521149801
0.020000000000000018,-0.97,0.18579180694726946
0.030000000000000027,-0.97,0.16192085736291975
0.040000000000000036,-0.97,0.1374108801291617
0.050000000000000044,-0.97,0.11235860492859356
0.06000000000000005,-0.97,0.08686290164613608
0.07000000000000006,-0.97,0.06102439017476632
0.08000000000000007,-0.97,0.03494504331476864
0.09000000000000008,-0.97,0.008727784333679246
0.10000000000000009,-0.97,-0.0175239192248298
0.1100000000000001,-0.97,-0.04370646388007561
0.1200000000000001,-0.97,-0.06971651908997079
0.13000000000000012,-0.97,-0.0954514350494657
0.14000000000000012,-0.97,-0.12080964780243307
0.15000000000000013,-0.97,-0.14569108006820225
0.15999999999999992,-0.97,-0.16999753620086555
0.16999999999999993,-0.97,-0.1936330897226307
0.17999999999999994,-0.97,-0.21650446190180456
0.18999999999999995,-0.97,-0.2385213898813321
0.19999999999999996,-0.97,-0.2595969829050556
0.20999999999999996,-0.97,-0.2796480652358332
0.21999999999999997,-0.97,-0.29859550441217325
0.22999999999999998,-0.97,-0.3163645235479082
0.24,-0.97,-0.33288499644240244
0.25,-0.97,-0.34809172433662705
0.26,-0.97,-0.361924693222877
0.27,-0.97,-0.37432931069264036
0.28,-0.97,-0.38525662138789474
0.29000000000000004,-0.97,-0.39466350020553953
0.30000000000000004,-0.97,-0.40251282249247544
0.31000000000000005,-0.97,-0.40877361055965006
0.32000000000000006,-0.97,-0.41342115593684436
0.33000000000000007,-0.97,-0.4164371168857164
0.3400000000000001,-0.97,-0.4178095907862618
0.3500000000000001,-0.97,-0.41753316111101924
0.3600000000000001,-0.97,-0.4156089188016282
0.3700000000000001,-0.97,-0.41204445796338107
0.3800000000000001,-0.97,-0.40685384589475915
0.3900000000000001,-0.97,-0.40005756757023214
0.40000000000000013,-0.97,-0.39168244479542286
0.4099999999999999,-0.97,-0.3817615303536937
0.41999999999999993,-0.97,-0.37033397756191166
0.42999999999999994,-0.97,-0.3574448857501934
0.43999999999999995,-0.97,-0.34314512227545413
0.44999999999999996,-0.97,-0.3274911217711879
0.45999999999999996,-0.97,-0.3105446634257527
0.47,-0.97,-0.2923726271681374
0.48,-0.97,-0.27304672972343724
0.49,-0.97,-0.25264324157970375
0.5,-0.97,-0.23124268598317319
0.51,-0.97,-0.20892952114980118
0.52,-0.97,-0.1857918069472697
0.53,-0.97,-0.16192085736291995
0.54,-0.97,-0.13741088012916194
0.55,-0.97,-0.11235860492859376
0.56,-0.97,-0.08686290164613628
0.5700000000000001,-0.97,-0.06102439017476642
0.5800000000000001,-0.97,-0.03494504331476872
0.5900000000000001,-0.97,-0.008727784333679312
0.6000000000000001,-0.97,0.01752391922482975
0.6100000000000001,-0.97,0.04370646388007557
0.6200000000000001,-0.97,0.06971651908997076