TITLE = "Solution" 
VARIABLES = "x", "y", "sol" 
ZONE STRANDID=1, SOLUTIONTIME= 0.5500000000000004, I= 201, J =201, DATAPACKING=POINT 
-1.0,-1.0,-0.0021538992040764857
-0.99,-1.0,-0.0206033196575652
-0.98,-1.0,-0.03897142822112689
-0.97,-1.0,-0.05718573436185178
-0.96,-1.0,-0.0751743545347274
-0.95,-1.0,-0.09286629587415013
-0.94,-1.0,-0.11019173637033258
-0.9299999999999999,-1.0,-0.127082300424877
-0.92,-1.0,-0.1434713286980248
-0.91,-1.0,-0.15929414118261698
-0.9,-1.0,-0.17448829246653189
-0.89,-1.0,-0.18899381817619956
-0.88,-1.0,-0.20275347162858823
-0.87,-1.0,-0.2157129497577089
-0.86,-1.0,-0.22782110742400866
-0.85,-1.0,-0.23903015926086915
-0.84,-1.0,-0.24929586826161956
-0.83,-1.0,-0.2585777203627898
-0.8200000000000001,-1.0,-0.26683908433461145
-0.81,-1.0,-0.2740473563477463
-0.8,-1.0,-0.28017408864570403
-0.79,-1.0,-0.28519510181514307
-0.78,-1.0,-0.2890905802109662
-0.77,-1.0,-0.29184515015961965
-0.76,-1.0,-0.29344794063195956
-0.75,-1.0,-0.2938926261462368
-0.74,-1.0,-0.29317745173188375
-0.73,-1.0,-0.29130523985558254
-0.72,-1.0,-0.2882833792822762
-0.71,-1.0,-0.2841237959150908
-0.7,-1.0,-0.2788429057292434
-0.69,-1.0,-0.27246154998568906
-0.6799999999999999,-1.0,-0.2650049129801829
-0.6699999999999999,-1.0,-0.25650242265237233
-0.6599999999999999,-1.0,-0.24698763444716315
-0.6499999999999999,-1.0,-0.23649809888670775
-0.64,-1.0,-0.22507521337565045
-0.63,-1.0,-0.21276405882448346
-0.62,-1.0,-0.1996132217357885
-0.61,-1.0,-0.18567460245550904
-0.6,-1.0,-0.17100321034599458
-0.59,-1.0,-0.15565694668918006
-0.5800000000000001,-1.0,-0.1396963761766779
-0.5700000000000001,-1.0,-0.12318448788860994
-0.56,-1.0,-0.10618644670448488
-0.55,-1.0,-0.08876933612719023
-0.54,-1.0,-0.07100189353505358
-0.53,-1.0,-0.052954238906813694
-0.52,-1.0,-0.034697598090099174
-0.51,-1.0,-0.016304021705547744
-0.5,-1.0,0.002153899204076522
-0.49,-1.0,0.020603319657565244
-0.48,-1.0,0.03897142822112694
-0.47,-1.0,0.05718573436185183
-0.45999999999999996,-1.0,0.07517435453472739
-0.44999999999999996,-1.0,0.09286629587415016
-0.43999999999999995,-1.0,0.11019173637033258
-0.42999999999999994,-1.0,0.127082300424877
-0.42000000000000004,-1.0,0.14347132869802487
-0.41000000000000003,-1.0,0.15929414118261692
-0.4,-1.0,0.1744882924665319
-0.39,-1.0,0.18899381817619965
-0.38,-1.0,0.2027534716285882
-0.37,-1.0,0.21571294975770902
-0.36,-1.0,0.22782110742400852
-0.35,-1.0,0.23903015926086918
-0.33999999999999997,-1.0,0.2492958682616196
-0.32999999999999996,-1.0,0.2585777203627898
-0.31999999999999995,-1.0,0.26683908433461156
-0.30999999999999994,-1.0,0.27404735634774624
-0.29999999999999993,-1.0,0.2801740886457043
-0.29000000000000004,-1.0,0.2851951018151432
-0.28,-1.0,0.2890905802109663
-0.27,-1.0,0.29184515015961965
-0.26,-1.0,0.29344794063195956
-0.25,-1.0,0.2938926261462367
-0.24,-1.0,0.2931774517318841
-0.22999999999999998,-1.0,0.29130523985558265
-0.21999999999999997,-1.0,0.288283379282276
-0.20999999999999996,-1.0,0.2841237959150907
-0.19999999999999996,-1.0,0.2788429057292435
-0.18999999999999995,-1.0,0.272461549985689
-0.17999999999999994,-1.0,0.2650049129801828
-0.16999999999999993,-1.0,0.25650242265237244
-0.16000000000000003,-1.0,0.24698763444716298
-0.15000000000000002,-1.0,0.23649809888670786
-0.14,-1.0,0.2250752133756505
-0.13,-1.0,0.21276405882448335
-0.12,-1.0,0.19961322173578866
-0.10999999999999999,-1.0,0.18567460245550899
-0.09999999999999998,-1.0,0.17100321034599464
-0.08999999999999997,-1.0,0.15565694668918
-0.07999999999999996,-1.0,0.1396963761766779
-0.06999999999999995,-1.0,0.12318448788860994
-0.05999999999999994,-1.0,0.10618644670448493
-0.04999999999999993,-1.0,0.08876933612719026
-0.040000000000000036,-1.0,0.07100189353505357
-0.030000000000000027,-1.0,0.052954238906813694
-0.020000000000000018,-1.0,0.03469759809009913
-0.010000000000000009,-1.0,0.016304021705547678
0.0,-1.0,-0.0021538992040765533
0.010000000000000009,-1.0,-0.020603319657565275
0.020000000000000018,-1.0,-0.03897142822112697
0.030000000000000027,-1.0,-0.05718573436185186
0.040000000000000036,-1.0,-0.07517435453472743
0.050000000000000044,-1.0,-0.09286629587415016
0.06000000000000005,-1.0,-0.11019173637033255
0.07000000000000006,-1.0,-0.12708230042487695
0.08000000000000007,-1.0,-0.14347132869802487
0.09000000000000008,-1.0,-0.15929414118261695
0.10000000000000009,-1.0,-0.1744882924665319
0.1100000000000001,-1.0,-0.18899381817619948
0.1200000000000001,-1.0,-0.20275347162858826
0.13000000000000012,-1.0,-0.21571294975770894
0.14000000000000012,-1.0,-0.22782110742400857
0.15000000000000013,-1.0,-0.23903015926086926
0.15999999999999992,-1.0,-0.24929586826161945
0.16999999999999993,-1.0,-0.2585777203627897
0.17999999999999994,-1.0,-0.26683908433461145
0.18999999999999995,-1.0,-0.2740473563477462
0.19999999999999996,-1.0,-0.28017408864570414
0.20999999999999996,-1.0,-0.2851951018151432
0.21999999999999997,-1.0,-0.2890905802109661
0.22999999999999998,-1.0,-0.2918451501596196
0.24,-1.0,-0.29344794063195945
0.25,-1.0,-0.2938926261462367
0.26,-1.0,-0.29317745173188403
0.27,-1.0,-0.29130523985558265
0.28,-1.0,-0.288283379282276
0.29000000000000004,-1.0,-0.28412379591509074
0.30000000000000004,-1.0,-0.27884290572924364
0.31000000000000005,-1.0,-0.272461549985689
0.32000000000000006,-1.0,-0.2650049129801829
0.33000000000000007,-1.0,-0.25650242265237244
0.3400000000000001,-1.0,-0.24698763444716318
0.3500000000000001,-1.0,-0.23649809888670778
0.3600000000000001,-1.0,-0.2250752133756505
0.3700000000000001,-1.0,-0.21276405882448346
0.3800000000000001,-1.0,-0.19961322173578863
0.3900000000000001,-1.0,-0.18567460245550918
0.40000000000000013,-1.0,-0.17100321034599464
0.4099999999999999,-1.0,-0.15565694668918006
0.41999999999999993,-1.0,-0.13969637617667788
0.42999999999999994,-1.0,-0.12318448788860988
0.43999999999999995,-1.0,-0.1061864467044849
0.44999999999999996,-1.0,-0.08876933612719012
0.45999999999999996,-1.0,-0.07100189353505354
0.47,-1.0,-0.052954238906813625
0.48,-1.0,-0.03469759809009912
0.49,-1.0,-0.016304021705547657
0.5,-1.0,0.0021538992040765915
0.51,-1.0,0.020603319657565275
0.52,-1.0,0.03897142822112697
0.53,-1.0,0.057185734361851856
0.54,-1.0,0.07517435453472743
0.55,-1.0,0.09286629587415018
0.56,-1.0,0.11019173637033253
0.5700000000000001,-1.0,0.127082300424877
0.5800000000000001,-1.0,0.14347132869802492
0.5900000000000001,-1.0,0.15929414118261698
0.6000000000000001,-1.0,0.174488292466532
0.6100000000000001,-1.0,0.1889938181761995
0.6200000000000001,-1.0,0.20275347162858823
0.6300000000000001,-1.0,0.215712949757709
0.6400000000000001,-1.0,0.22782110742400866
0.6500000000000001,-1.0,0.23903015926086923
0.6600000000000001,-1.0,0.24929586826161948
0.6699999999999999,-1.0,0.2585777203627898
0.6799999999999999,-1.0,0.2668390843346114
0.69,-1.0,0.27404735634774613
0.7,-1.0,0.2801740886457041
0.71,-1.0,0.28519510181514307
0.72,-1.0,0.2890905802109662
0.73,-1.0,0.29184515015961965
0.74,-1.0,0.29344794063195945
0.75,-1.0,0.2938926261462367
0.76,-1.0,0.29317745173188414
0.77,-1.0,0.29130523985558254
0.78,-1.0,0.2882833792822761
0.79,-1.0,0.2841237959150906
0.8,-1.0,0.27884290572924364
0.81,-1.0,0.27246154998568894
0.8200000000000001,-1.0,0.2650049129801829
0.8300000000000001,-1.0,0.25650242265237244
0.8400000000000001,-1.0,0.246987634447163
0.8500000000000001,-1.0,0.23649809888670775
0.8600000000000001,-1.0,0.22507521337565045
0.8700000000000001,-1.0,0.21276405882448346
0.8800000000000001,-1.0,0.19961322173578855
0.8900000000000001,-1.0,0.18567460245550915
0.9000000000000001,-1.0,0.17100321034599458
0.9100000000000001,-1.0,0.15565694668918004
0.9199999999999999,-1.0,0.13969637617667788
0.9299999999999999,-1.0,0.12318448788860993
0.94,-1.0,0.10618644670448488
0.95,-1.0,0.08876933612719025
0.96,-1.0,0.07100189353505364
0.97,-1.0,0.05295423890681375
0.98,-1.0,0.03469759809009922
0.99,-1.0,0.01630402170554777
1.0,-1.0,-0.0021538992040764857

-1.0,-0.99,-0.020603319657565202
-0.99,-0.99,-0.035798742038534594
-0.98,-0.99,-0.05085288313956746
-0.97,-0.99,-0.06570633114332089
-0.96,-0.99,-0.08030046627641887
-0.95,-0.99,-0.09457769215491732
-0.94,-0.99,-0.10848166309091778
-0.9299999999999999,-0.99,-0.12195750646325584
-0.92,-0.99,-0.1349520392746685
-0.91,-0.99,-0.14741397804078596
-0.9,-0.99,-0.15929414118261698
-0.89,-0.99,-0.17054564312377082
-0.88,-0.99,-0.18112407932640812
-0.87,-0.99,-0.19098770153566494
-0.86,-0.99,-0.20009758254094134
-0.85,-0.99,-0.20841776980381882
-0.84,-0.99,-0.21591542734630226
-0.83,-0.99,-0.22256096533942557
-0.8200000000000001,-0.99,-0.2283281568807876
-0.81,-0.99,-0.23319424150015333
-0.8,-0.99,-0.23714001498463314
-0.79,-0.99,-0.24014990516893625
-0.78,-0.99,-0.2422120333915929
-0.77,-0.99,-0.2433182613746054
-0.76,-0.99,-0.2434642233415119
-0.75,-0.99,-0.24264934324711276
-0.74,-0.99,-0.24087683705085774
-0.73,-0.99,-0.23815370002492203
-0.72,-0.99,-0.2344906791470641
-0.71,-0.99,-0.22990223068721355
-0.7,-0.99,-0.2244064631551791
-0.69,-0.99,-0.21802506583463216
-0.6799999999999999,-0.99,-0.2107832231854137
-0.6699999999999999,-0.99,-0.2027095154519773
-0.6599999999999999,-0.99,-0.19383580587022028
-0.6499999999999999,-0.99,-0.18419711491784974
-0.64,-0.99,-0.17383148210455565
-0.63,-0.99,-0.1627798158474448
-0.62,-0.99,-0.15108573202420822
-0.61,-0.99,-0.13879538184117718
-0.6,-0.99,-0.12595726969559745
-0.59,-0.99,-0.112622061750932
-0.5800000000000001,-0.99,-0.09884238598066142
-0.5700000000000001,-0.99,-0.08467262446971591
-0.56,-0.99,-0.070168698793231
-0.55,-0.99,-0.055387849319638346
-0.54,-0.99,-0.04038840930908244
-0.53,-0.99,-0.025229574698692664
-0.52,-0.99,-0.009971170483263429
-0.51,-0.99,0.005326585386668798
-0.5,-0.99,0.02060331965756524
-0.49,-0.99,0.03579874203853466
-0.48,-0.99,0.05085288313956752
-0.47,-0.99,0.06570633114332086
-0.45999999999999996,-0.99,0.08030046627641889
-0.44999999999999996,-0.99,0.09457769215491732
-0.43999999999999995,-0.99,0.10848166309091777
-0.42999999999999994,-0.99,0.12195750646325595
-0.42000000000000004,-0.99,0.13495203927466842
-0.41000000000000003,-0.99,0.147413978040786
-0.4,-0.99,0.15929414118261703
-0.39,-0.99,0.17054564312377085
-0.38,-0.99,0.18112407932640817
-0.37,-0.99,0.1909877015356648
-0.36,-0.99,0.20009758254094134
-0.35,-0.99,0.20841776980381882
-0.33999999999999997,-0.99,0.2159154273463022
-0.32999999999999996,-0.99,0.22256096533942563
-0.31999999999999995,-0.99,0.22832815688078756
-0.30999999999999994,-0.99,0.2331942415001535
-0.29999999999999993,-0.99,0.23714001498463327
-0.29000000000000004,-0.99,0.2401499051689363
-0.28,-0.99,0.24221203339159297
-0.27,-0.99,0.24331826137460535
-0.26,-0.99,0.2434642233415119
-0.25,-0.99,0.24264934324711307
-0.24,-0.99,0.24087683705085783
-0.22999999999999998,-0.99,0.23815370002492187
-0.21999999999999997,-0.99,0.23449067914706398
-0.20999999999999996,-0.99,0.22990223068721355
-0.19999999999999996,-0.99,0.2244064631551791
-0.18999999999999995,-0.99,0.21802506583463213
-0.17999999999999994,-0.99,0.21078322318541373
-0.16999999999999993,-0.99,0.20270951545197713
-0.16000000000000003,-0.99,0.19383580587022037
-0.15000000000000002,-0.99,0.1841971149178498
-0.14,-0.99,0.17383148210455557
-0.13,-0.99,0.16277981584744494
-0.12,-0.99,0.15108573202420816
-0.10999999999999999,-0.99,0.13879538184117726
-0.09999999999999998,-0.99,0.1259572696955974
-0.08999999999999997,-0.99,0.11262206175093199
-0.07999999999999996,-0.99,0.09884238598066143
-0.06999999999999995,-0.99,0.08467262446971596
-0.05999999999999994,-0.99,0.07016869879323102
-0.04999999999999993,-0.99,0.05538784931963833
-0.040000000000000036,-0.99,0.04038840930908245
-0.030000000000000027,-0.99,0.025229574698692626
-0.020000000000000018,-0.99,0.009971170483263367
-0.010000000000000009,-0.99,-0.005326585386668829
0.0,-0.99,-0.020603319657565265
0.010000000000000009,-0.99,-0.035798742038534684
0.020000000000000018,-0.99,-0.05085288313956754
0.030000000000000027,-0.99,-0.06570633114332092
0.040000000000000036,-0.99,-0.0803004662764189
0.050000000000000044,-0.99,-0.09457769215491732
0.06000000000000005,-0.99,-0.10848166309091772
0.07000000000000006,-0.99,-0.12195750646325593
0.08000000000000007,-0.99,-0.13495203927466845
0.09000000000000008,-0.99,-0.147413978040786
0.10000000000000009,-0.99,-0.15929414118261687
0.1100000000000001,-0.99,-0.17054564312377088
0.1200000000000001,-0.99,-0.18112407932640812
0.13000000000000012,-0.99,-0.19098770153566486
0.14000000000000012,-0.99,-0.2000975825409414
0.15000000000000013,-0.99,-0.20841776980381868
0.15999999999999992,-0.99,-0.21591542734630223
0.16999999999999993,-0.99,-0.2225609653394256
0.17999999999999994,-0.99,-0.2283281568807875
0.18999999999999995,-0.99,-0.2331942415001534
0.19999999999999996,-0.99,-0.2371400149846333
0.20999999999999996,-0.99,-0.2401499051689361
0.21999999999999997,-0.99,-0.24221203339159292
0.22999999999999998,-0.99,-0.24331826137460527
0.24,-0.99,-0.24346422334151183
0.25,-0.99,-0.24264934324711296
0.26,-0.99,-0.24087683705085783
0.27,-0.99,-0.2381537000249219
0.28,-0.99,-0.23449067914706406
0.29000000000000004,-0.99,-0.22990223068721363
0.30000000000000004,-0.99,-0.22440646315517906
0.31000000000000005,-0.99,-0.21802506583463216
0.32000000000000006,-0.99,-0.21078322318541381
0.33000000000000007,-0.99,-0.20270951545197732
0.3400000000000001,-0.99,-0.19383580587022026
0.3500000000000001,-0.99,-0.18419711491784974
0.3600000000000001,-0.99,-0.17383148210455568
0.3700000000000001,-0.99,-0.1627798158474449
0.3800000000000001,-0.99,-0.15108573202420833
0.3900000000000001,-0.99,-0.13879538184117723
0.40000000000000013,-0.99,-0.12595726969559745
0.4099999999999999,-0.99,-0.11262206175093198
0.41999999999999993,-0.99,-0.09884238598066135
0.42999999999999994,-0.99,-0.08467262446971595
0.43999999999999995,-0.99,-0.0701686987932309
0.44999999999999996,-0.99,-0.055387849319638305
0.45999999999999996,-0.99,-0.04038840930908237
0.47,-0.99,-0.02522957469869261
0.48,-0.99,-0.00997117048326334
0.49,-0.99,0.005326585386668867
0.5,-0.99,0.02060331965756528
0.51,-0.99,0.035798742038534684
0.52,-0.99,0.05085288313956754
0.53,-0.99,0.06570633114332089
0.54,-0.99,0.08030046627641892
0.55,-0.99,0.09457769215491729
0.56,-0.99,0.10848166309091778
0.5700000000000001,-0.99,0.12195750646325594
0.5800000000000001,-0.99,0.13495203927466842
0.5900000000000001,-0.99,0.14741397804078604
0.6000000000000001,-0.99,0.15929414118261687
0.6100000000000001,-0.99,0.17054564312377085
0.6200000000000001,-0.99,0.18112407932640817
0.6300000000000001,-0.99,0.1909877015356649
0.6400000000000001,-0.99,0.20009758254094145
0.6500000000000001,-0.99,0.20841776980381874
0.6600000000000001,-0.99,0.21591542734630226
0.6699999999999999,-0.99,0.22256096533942554
0.6799999999999999,-0.99,0.22832815688078753
0.69,-0.99,0.23319424150015336
0.7,-0.99,0.23714001498463322
0.71,-0.99,0.2401499051689362
0.72,-0.99,0.24221203339159297
0.73,-0.99,0.24331826137460527
0.74,-0.99,0.24346422334151185
0.75,-0.99,0.24264934324711307
0.76,-0.99,0.24087683705085772
0.77,-0.99,0.238153700024922
0.78,-0.99,0.234490679147064
0.79,-0.99,0.22990223068721366
0.8,-0.99,0.22440646315517904
0.81,-0.99,0.21802506583463216
0.8200000000000001,-0.99,0.21078322318541381
0.8300000000000001,-0.99,0.20270951545197718
0.8400000000000001,-0.99,0.19383580587022026
0.8500000000000001,-0.99,0.1841971149178497
0.8600000000000001,-0.99,0.17383148210455565
0.8700000000000001,-0.99,0.16277981584744486
0.8800000000000001,-0.99,0.15108573202420827
0.8900000000000001,-0.99,0.13879538184117718
0.9000000000000001,-0.99,0.1259572696955974
0.9100000000000001,-0.99,0.11262206175093196
0.9199999999999999,-0.99,0.0988423859806614
0.9299999999999999,-0.99,0.08467262446971591
0.94,-0.99,0.070168698793231
0.95,-0.99,0.055387849319638395
0.96,-0.99,0.04038840930908248
0.97,-0.99,0.0252295746986927
0.98,-0.99,0.00997117048326345
0.99,-0.99,-0.005326585386668772
1.0,-0.99,-0.020603319657565202

-1.0,-0.98,-0.03897142822112687
-0.99,-0.98,-0.05085288313956747
-0.98,-0.98,-0.06253364496072861
-0.97,-0.98,-0.07396761505413456
-0.96,-0.98,-0.08510966876351081
-0.95,-0.98,-0.0959158334931865
-0.94,-0.98,-0.10634346224784065
-0.9299999999999999,-0.98,-0.11635140194070927
-0.92,-0.98,-0.12590015580601704
-0.91,-0.98,-0.13495203927466848
-0.9,-0.98,-0.14347132869802492
-0.89,-0.98,-0.15142440233282553
-0.88,-0.98,-0.15877987303084756
-0.87,-0.98,-0.16550871210964052
-0.86,-0.98,-0.17158436391547507
-0.85,-0.98,-0.17698285062637442
-0.84,-0.98,-0.18168286688162485
-0.83,-0.98,-0.18566586386430006
-0.8200000000000001,-0.98,-0.18891612250496748
-0.81,-0.98,-0.19142081551767448
-0.8,-0.98,-0.19317005802338547
-0.79,-0.98,-0.19415694656108295
-0.78,-0.98,-0.1943775863325754
-0.77,-0.98,-0.19383110657348518
-0.76,-0.98,-0.19251966398975864
-0.75,-0.98,-0.19044843424613292
-0.74,-0.98,-0.18762559154015096
-0.73,-0.98,-0.18406227634233924
-0.72,-0.98,-0.1797725514298594
-0.71,-0.98,-0.17477334638715242
-0.7,-0.98,-0.16908439079260218
-0.69,-0.98,-0.16272813635490374
-0.6799999999999999,-0.98,-0.15572966830642648
-0.6699999999999999,-0.98,-0.14811660640326163
-0.6599999999999999,-0.98,-0.13991899592266382
-0.6499999999999999,-0.98,-0.13116918908806813
-0.64,-0.98,-0.12190171738964406
-0.63,-0.98,-0.1121531553042804
-0.62,-0.98,-0.10196197595283346
-0.61,-0.98,-0.09136839926429663
-0.6,-0.98,-0.08041423324611462
-0.59,-0.98,-0.06914270898707879
-0.5800000000000001,-0.98,-0.05759831004396995
-0.5700000000000001,-0.98,-0.04582659688528248
-0.56,-0.98,-0.033874027084869376
-0.55,-0.98,-0.021787771975123216
-0.54,-0.98,-0.009615530483277415
-0.53,-0.98,0.00259465911446783
-0.52,-0.98,0.014794608778075306
-0.51,-0.98,0.026936170879849553
-0.5,-0.98,0.038971428221126946
-0.49,-0.98,0.05085288313956752
-0.48,-0.98,0.06253364496072858
-0.47,-0.98,0.07396761505413457
-0.45999999999999996,-0.98,0.08510966876351078
-0.44999999999999996,-0.98,0.0959158334931865
-0.43999999999999995,-0.98,0.10634346224784072
-0.42999999999999994,-0.98,0.11635140194070923
-0.42000000000000004,-0.98,0.12590015580601702
-0.41000000000000003,-0.98,0.13495203927466848
-0.4,-0.98,0.14347132869802492
-0.39,-0.98,0.1514244023328256
-0.38,-0.98,0.1587798730308474
-0.37,-0.98,0.16550871210964052
-0.36,-0.98,0.17158436391547507
-0.35,-0.98,0.17698285062637437
-0.33999999999999997,-0.98,0.18168286688162488
-0.32999999999999996,-0.98,0.1856658638643
-0.31999999999999995,-0.98,0.18891612250496756
-0.30999999999999994,-0.98,0.1914208155176746
-0.29999999999999993,-0.98,0.19317005802338555
-0.29000000000000004,-0.98,0.194156946561083
-0.28,-0.98,0.19437758633257535
-0.27,-0.98,0.19383110657348523
-0.26,-0.98,0.19251966398975887
-0.25,-0.98,0.19044843424613292
-0.24,-0.98,0.18762559154015085
-0.22999999999999998,-0.98,0.18406227634233913
-0.21999999999999997,-0.98,0.17977255142985937
-0.20999999999999996,-0.98,0.1747733463871524
-0.19999999999999996,-0.98,0.16908439079260212
-0.18999999999999995,-0.98,0.1627281363549038
-0.17999999999999994,-0.98,0.15572966830642634
-0.16999999999999993,-0.98,0.14811660640326169
-0.16000000000000003,-0.98,0.13991899592266385
-0.15000000000000002,-0.98,0.13116918908806807
-0.14,-0.98,0.12190171738964414
-0.13,-0.98,0.11215315530428036
-0.12,-0.98,0.10196197595283352
-0.10999999999999999,-0.98,0.09136839926429657
-0.09999999999999998,-0.98,0.08041423324611459
-0.08999999999999997,-0.98,0.0691427089870788
-0.07999999999999996,-0.98,0.05759831004397002
-0.06999999999999995,-0.98,0.0458265968852825
-0.05999999999999994,-0.98,0.033874027084869376
-0.04999999999999993,-0.98,0.021787771975123216
-0.040000000000000036,-0.98,0.00961553048327739
-0.030000000000000027,-0.98,-0.002594659114467898
-0.020000000000000018,-0.98,-0.014794608778075336
-0.010000000000000009,-0.98,-0.026936170879849567
0.0,-0.98,-0.03897142822112695
0.010000000000000009,-0.98,-0.05085288313956753
0.020000000000000018,-0.98,-0.06253364496072863
0.030000000000000027,-0.98,-0.0739676150541346
0.040000000000000036,-0.98,-0.08510966876351081
0.050000000000000044,-0.98,-0.09591583349318647
0.06000000000000005,-0.98,-0.10634346224784069
0.07000000000000006,-0.98,-0.11635140194070925
0.08000000000000007,-0.98,-0.12590015580601702
0.09000000000000008,-0.98,-0.13495203927466842
0.10000000000000009,-0.98,-0.14347132869802498
0.1100000000000001,-0.98,-0.1514244023328255
0.1200000000000001,-0.98,-0.15877987303084745
0.13000000000000012,-0.98,-0.16550871210964055
0.14000000000000012,-0.98,-0.171584363915475
0.15000000000000013,-0.98,-0.17698285062637442
0.15999999999999992,-0.98,-0.18168286688162483
0.16999999999999993,-0.98,-0.18566586386429995
0.17999999999999994,-0.98,-0.18891612250496753
0.18999999999999995,-0.98,-0.19142081551767462
0.19999999999999996,-0.98,-0.19317005802338538
0.20999999999999996,-0.98,-0.19415694656108298
0.21999999999999997,-0.98,-0.1943775863325753
0.22999999999999998,-0.98,-0.19383110657348512
0.24,-0.98,-0.19251966398975878
0.25,-0.98,-0.19044843424613295
0.26,-0.98,-0.1876255915401509
0.27,-0.98,-0.18406227634233924
0.28,-0.98,-0.17977255142985943
0.29000000000000004,-0.98,-0.1747733463871524
0.30000000000000004,-0.98,-0.16908439079260218
0.31000000000000005,-0.98,-0.16272813635490385
0.32000000000000006,-0.98,-0.15572966830642654
0.33000000000000007,-0.98,-0.1481166064032616
0.3400000000000001,-0.98,-0.13991899592266382
0.3500000000000001,-0.98,-0.13116918908806816
0.3600000000000001,-0.98,-0.12190171738964414
0.3700000000000001,-0.98,-0.11215315530428048
0.3800000000000001,-0.98,-0.10196197595283349
0.3900000000000001,-0.98,-0.0913683992642966
0.40000000000000013,-0.98,-0.08041423324611459
0.4099999999999999,-0.98,-0.06914270898707875
0.41999999999999993,-0.98,-0.05759831004397002
0.42999999999999994,-0.98,-0.0458265968852824
0.43999999999999995,-0.98,-0.03387402708486934
0.44999999999999996,-0.98,-0.02178777197512314
0.45999999999999996,-0.98,-0.009615530483277363
0.47,-0.98,0.002594659114467922
0.48,-0.98,0.014794608778075376
0.49,-0.98,0.0269361708798496
0.5,-0.98,0.038971428221126966
0.51,-0.98,0.05085288313956754
0.52,-0.98,0.06253364496072861
0.53,-0.98,0.07396761505413459
0.54,-0.98,0.08510966876351078
0.55,-0.98,0.0959158334931865
0.56,-0.98,0.10634346224784068
0.5700000000000001,-0.98,0.11635140194070923
0.5800000000000001,-0.98,0.1259001558060171
0.5900000000000001,-0.98,0.1349520392746684
0.6000000000000001,-0.98,0.14347132869802498
0.6100000000000001,-0.98,0.15142440233282556
0.6200000000000001,-0.98,0.1587798730308475
0.6300000000000001,-0.98,0.1655087121096406
0.6400000000000001,-0.98,0.171584363915475
0.6500000000000001,-0.98,0.17698285062637442
0.6600000000000001,-0.98,0.1816828668816248
0.6699999999999999,-0.98,0.1856658638643
0.6799999999999999,-0.98,0.18891612250496748
0.69,-0.98,0.19142081551767462
0.7,-0.98,0.1931700580233854
0.71,-0.98,0.19415694656108295
0.72,-0.98,0.1943775863325753
0.73,-0.98,0.19383110657348518
0.74,-0.98,0.19251966398975884
0.75,-0.98,0.19044843424613284
0.76,-0.98,0.187625591540151
0.77,-0.98,0.18406227634233918
0.78,-0.98,0.17977255142985948
0.79,-0.98,0.17477334638715242
0.8,-0.98,0.16908439079260218
0.81,-0.98,0.16272813635490385
0.8200000000000001,-0.98,0.15572966830642643
0.8300000000000001,-0.98,0.14811660640326163
0.8400000000000001,-0.98,0.13991899592266382
0.8500000000000001,-0.98,0.13116918908806816
0.8600000000000001,-0.98,0.12190171738964412
0.8700000000000001,-0.98,0.11215315530428045
0.8800000000000001,-0.98,0.10196197595283343
0.8900000000000001,-0.98,0.09136839926429657
0.9000000000000001,-0.98,0.08041423324611457
0.9100000000000001,-0.98,0.06914270898707878
0.9199999999999999,-0.98,0.05759831004396995
0.9299999999999999,-0.98,0.04582659688528247
0.94,-0.98,0.03387402708486942
0.95,-0.98,0.021787771975123233
0.96,-0.98,0.009615530483277443
0.97,-0.98,-0.0025946591144678215
0.98,-0.98,-0.014794608778075289
0.99,-0.98,-0.026936170879849515
1.0,-0.98,-0.03897142822112687

-1.0,-0.97,-0.0571857343618518
-0.99,-0.97,-0.06570633114332089
-0.98,-0.97,-0.07396761505413457
-0.97,-0.97,-0.08193698258091853
-0.96,-0.97,-0.08958298227090218
-0.95,-0.97,-0.09687543885643415
-0.94,-0.97,-0.103785572342978
-0.9299999999999999,-0.97,-0.11028611159060181
-0.92,-0.97,-0.11635140194070925
-0.91,-0.97,-0.12195750646325595
-0.9,-0.97,-0.127082300424877
-0.89,-0.97,-0.13170555860510164
-0.88,-0.97,-0.13580903511605794
-0.87,-0.97,-0.13937653541065767
-0.86,-0.97,-0.14239398019507357
-0.85,-0.97,-0.1448494609932811
-0.84,-0.97,-0.14673328714437223
-0.83,-0.97,-0.14803802404716676
-0.8200000000000001,-0.97,-0.14875852250118698
-0.81,-0.97,-0.14889193902819953
-0.8,-0.97,-0.14843774709412427
-0.79,-0.97,-0.14739773918702465
-0.78,-0.97,-0.14577601974297522
-0.77,-0.97,-0.1435789889477287
-0.76,-0.97,-0.14081531747810622
-0.75,-0.97,-0.13749591228279678
-0.74,-0.97,-0.13363387353761436
-0.73,-0.97,-0.12924444294508836
-0.72,-0.97,-0.12434494358242756
-0.71,-0.97,-0.118954711535248
-0.7,-0.97,-0.11309501958687704
-0.69,-0.97,-0.1067889932643965
-0.6799999999999999,-0.97,-0.10006151957275167
-0.6699999999999999,-0.97,-0.09293914877711307
-0.6599999999999999,-0.97,-0.08544998962110947
-0.6499999999999999,-0.97,-0.07762359839445816
-0.64,-0.97,-0.06949086228779286
-0.63,-0.97,-0.06108387749503269
-0.62,-0.97,-0.0524358225443688
-0.61,-0.97,-0.043580827357770864
-0.6,-0.97,-0.03455383855577791
-0.59,-0.97,-0.02539048153915255
-0.5800000000000001,-0.97,-0.016126919891699863
-0.5700000000000001,-0.97,-0.006799712659123431
-0.56,-0.97,0.0025543299328253076
-0.55,-0.97,0.011898291751491565
-0.54,-0.97,0.02119529644842707
-0.53,-0.97,0.030408652993490545
-0.52,-0.97,0.03950200047758082
-0.51,-0.97,0.04843945161253345
-0.5,-0.97,0.05718573436185184
-0.49,-0.97,0.06570633114332086
-0.48,-0.97,0.07396761505413459
-0.47,-0.97,0.0819369825809185
-0.45999999999999996,-0.97,0.08958298227090217
-0.44999999999999996,-0.97,0.09687543885643421
-0.43999999999999995,-0.97,0.10378557234297797
-0.42999999999999994,-0.97,0.11028611159060178
-0.42000000000000004,-0.97,0.11635140194070925
-0.41000000000000003,-0.97,0.12195750646325593
-0.4,-0.97,0.1270823004248771
-0.39,-0.97,0.1317055586051015
-0.38,-0.97,0.13580903511605794
-0.37,-0.97,0.1393765354106577
-0.36,-0.97,0.14239398019507352
-0.35,-0.97,0.14484946099328114
-0.33999999999999997,-0.97,0.1467332871443722
-0.32999999999999996,-0.97,0.14803802404716682
-0.31999999999999995,-0.97,0.14875852250118704
-0.30999999999999994,-0.97,0.1488919390281996
-0.29999999999999993,-0.97,0.14843774709412436
-0.29000000000000004,-0.97,0.14739773918702456
-0.28,-0.97,0.14577601974297524
-0.27,-0.97,0.14357898894772886
-0.26,-0.97,0.14081531747810622
-0.25,-0.97,0.13749591228279667
-0.24,-0.97,0.13363387353761425
-0.22999999999999998,-0.97,0.1292444429450883
-0.21999999999999997,-0.97,0.12434494358242752
-0.20999999999999996,-0.97,0.11895471153524795
-0.19999999999999996,-0.97,0.11309501958687707
-0.18999999999999995,-0.97,0.1067889932643964
-0.17999999999999994,-0.97,0.10006151957275171
-0.16999999999999993,-0.97,0.09293914877711307
-0.16000000000000003,-0.97,0.08544998962110942
-0.15000000000000002,-0.97,0.0776235983944582
-0.14,-0.97,0.06949086228779283
-0.13,-0.97,0.061083877495032746
-0.12,-0.97,0.052435822544368765
-0.10999999999999999,-0.97,0.043580827357770836
-0.09999999999999998,-0.97,0.034553838555777955
-0.08999999999999997,-0.97,0.025390481539152614
-0.07999999999999996,-0.97,0.01612691989169987
-0.06999999999999995,-0.97,0.006799712659123448
-0.05999999999999994,-0.97,-0.0025543299328253076
-0.04999999999999993,-0.97,-0.011898291751491576
-0.040000000000000036,-0.97,-0.021195296448427138
-0.030000000000000027,-0.97,-0.030408652993490576
-0.020000000000000018,-0.97,-0.03950200047758082
-0.010000000000000009,-0.97,-0.04843945161253346
0.0,-0.97,-0.05718573436185184
0.010000000000000009,-0.97,-0.06570633114332092
0.020000000000000018,-0.97,-0.07396761505413459
0.030000000000000027,-0.97,-0.08193698258091853
0.040000000000000036,-0.97,-0.0895829822709022
0.050000000000000044,-0.97,-0.09687543885643415
0.06000000000000005,-0.97,-0.103785572342978
0.07000000000000006,-0.97,-0.1102861115906018
0.08000000000000007,-0.97,-0.1163514019407092
0.09000000000000008,-0.97,-0.12195750646325598
0.10000000000000009,-0.97,-0.12708230042487698
0.1100000000000001,-0.97,-0.13170555860510152
0.1200000000000001,-0.97,-0.13580903511605794
0.13000000000000012,-0.97,-0.1393765354106576
0.14000000000000012,-0.97,-0.14239398019507354
0.15000000000000013,-0.97,-0.14484946099328108
0.15999999999999992,-0.97,-0.14673328714437214
0.16999999999999993,-0.97,-0.14803802404716676
0.17999999999999994,-0.97,-0.1487585225011871
0.18999999999999995,-0.97,-0.1488919390281995
0.19999999999999996,-0.97,-0.1484377470941243
0.20999999999999996,-0.97,-0.1473977391870245
0.21999999999999997,-0.97,-0.14577601974297516
0.22999999999999998,-0.97,-0.1435789889477288
0.24,-0.97,-0.14081531747810622
0.25,-0.97,-0.13749591228279673
0.26,-0.97,-0.13363387353761436
0.27,-0.97,-0.12924444294508836
0.28,-0.97,-0.12434494358242752
0.29000000000000004,-0.97,-0.118954711535248
0.30000000000000004,-0.97,-0.11309501958687715
0.31000000000000005,-0.97,-0.10678899326439653
0.32000000000000006,-0.97,-0.10006151957275167
0.33000000000000007,-0.97,-0.09293914877711307
0.3400000000000001,-0.97,-0.08544998962110946
0.3500000000000001,-0.97,-0.0776235983944582
0.3600000000000001,-0.97,-0.06949086228779293
0.3700000000000001,-0.97,-0.06108387749503273
0.3800000000000001,-0.97,-0.05243582254436879
0.3900000000000001,-0.97,-0.04358082735777086
0.40000000000000013,-0.97,-0.03455383855577788
0.4099999999999999,-0.97,-0.025390481539152618
0.41999999999999993,-0.97,-0.016126919891699794
0.42999999999999994,-0.97,-0.0067997126591234115
0.43999999999999995,-0.97,0.0025543299328253805
0.44999999999999996,-0.97,0.011898291751491607
0.45999999999999996,-0.97,0.021195296448427162
0.47,-0.97,0.030408652993490614
0.48,-0.97,0.03950200047758087
0.49,-0.97,0.048439451612533484
0.5,-0.97,0.05718573436185186
0.51,-0.97,0.06570633114332089
0.52,-0.97,0.07396761505413459
0.53,-0.97,0.08193698258091849
0.54,-0.97,0.08958298227090218
0.55,-0.97,0.09687543885643417
0.56,-0.97,0.10378557234297796