TITLE = "Solution" 
VARIABLES = "x", "y", "sol" 
ZONE STRANDID=1, SOLUTIONTIME= 1.3499999999999932, I= 201, J =201, DATAPACKING=POINT 
-1.0,-1.0,0.44783854509295384
-0.99,-1.0,0.4768135044031532
-0.98,-1.0,0.5039066986468427
-0.97,-1.0,0.5290112033640462
-0.96,-1.0,0.5520279425438008
-0.95,-1.0,0.5728660796319127
-0.94,-1.0,0.5914433760213342
-0.9299999999999999,-1.0,0.6076865156103759
-0.92,-1.0,0.6215313941478641
-0.91,-1.0,0.6329233722233348
-0.9,-1.0,0.6418174909038241
-0.89,-1.0,0.6481786491662365
-0.88,-1.0,0.6519817424250461
-0.87,-1.0,0.6532117616086297
-0.86,-1.0,0.6518638523932111
-0.85,-1.0,0.6479433343606629
-0.84,-1.0,0.6414656800045445
-0.83,-1.0,0.6324564536672415
-0.8200000000000001,-1.0,0.620951210649183
-0.81,-1.0,0.606995356888316
-0.8,-1.0,0.5906439697636108
-0.79,-1.0,0.5719615807298105
-0.78,-1.0,0.5510219206412613
-0.77,-1.0,0.5279076287699105
-0.76,-1.0,0.502709926665859
-0.75,-1.0,0.4755282581475766
-0.74,-1.0,0.4464698968425822
-0.73,-1.0,0.4156495228274436
-0.72,-1.0,0.38318877003790935
-0.71,-1.0,0.34921574623533214
-0.7,-1.0,0.31386452742386295
-0.69,-1.0,0.27727462871371467
-0.6799999999999999,-1.0,0.2395904537187617
-0.6699999999999999,-1.0,0.2009607246614471
-0.6599999999999999,-1.0,0.16153789543411606
-0.6499999999999999,-1.0,0.12147754993315077
-0.64,-1.0,0.08093778804041304
-0.63,-1.0,0.04007860167523785
-0.62,-1.0,-0.0009387566205782544
-0.61,-1.0,-0.04195241007288995
-0.6,-1.0,-0.08280049652887697
-0.59,-1.0,-0.12332180725301306
-0.5800000000000001,-1.0,-0.16335642314429624
-0.5700000000000001,-1.0,-0.2027463458638796
-0.56,-1.0,-0.2413361213823328
-0.55,-1.0,-0.2789734534856765
-0.54,-1.0,-0.3155098048189593
-0.53,-1.0,-0.35080098309534075
-0.52,-1.0,-0.3847077101571691
-0.51,-1.0,-0.41709617164324164
-0.5,-1.0,-0.44783854509295373
-0.49,-1.0,-0.4768135044031535
-0.48,-1.0,-0.5039066986468427
-0.47,-1.0,-0.5290112033640457
-0.45999999999999996,-1.0,-0.5520279425438008
-0.44999999999999996,-1.0,-0.5728660796319128
-0.43999999999999995,-1.0,-0.5914433760213347
-0.42999999999999994,-1.0,-0.6076865156103759
-0.42000000000000004,-1.0,-0.6215313941478642
-0.41000000000000003,-1.0,-0.6329233722233351
-0.4,-1.0,-0.6418174909038246
-0.39,-1.0,-0.6481786491662362
-0.38,-1.0,-0.651981742425046
-0.37,-1.0,-0.6532117616086299
-0.36,-1.0,-0.6518638523932107
-0.35,-1.0,-0.6479433343606624
-0.33999999999999997,-1.0,-0.6414656800045444
-0.32999999999999996,-1.0,-0.6324564536672415
-0.31999999999999995,-1.0,-0.6209512106491828
-0.30999999999999994,-1.0,-0.6069953568883157
-0.29999999999999993,-1.0,-0.5906439697636101
-0.29000000000000004,-1.0,-0.5719615807298113
-0.28,-1.0,-0.5510219206412614
-0.27,-1.0,-0.5279076287699103
-0.26,-1.0,-0.5027099266658588
-0.25,-1.0,-0.4755282581475767
-0.24,-1.0,-0.446469896842582
-0.22999999999999998,-1.0,-0.41564952282744366
-0.21999999999999997,-1.0,-0.3831887700379092
-0.20999999999999996,-1.0,-0.34921574623533225
-0.19999999999999996,-1.0,-0.31386452742386317
-0.18999999999999995,-1.0,-0.27727462871371483
-0.17999999999999994,-1.0,-0.23959045371876192
-0.16999999999999993,-1.0,-0.20096072466144743
-0.16000000000000003,-1.0,-0.1615378954341163
-0.15000000000000002,-1.0,-0.12147754993315099
-0.14,-1.0,-0.08093778804041316
-0.13,-1.0,-0.04007860167523786
-0.12,-1.0,0.0009387566205780636
-0.10999999999999999,-1.0,0.04195241007288985
-0.09999999999999998,-1.0,0.08280049652887679
-0.08999999999999997,-1.0,0.123321807253013
-0.07999999999999996,-1.0,0.1633564231442961
-0.06999999999999995,-1.0,0.2027463458638795
-0.05999999999999994,-1.0,0.2413361213823329
-0.04999999999999993,-1.0,0.27897345348567604
-0.040000000000000036,-1.0,0.3155098048189592
-0.030000000000000027,-1.0,0.3508009830953406
-0.020000000000000018,-1.0,0.38470771015716887
-0.010000000000000009,-1.0,0.41709617164324175
0.0,-1.0,0.4478385450929535
0.010000000000000009,-1.0,0.47681350440315307
0.020000000000000018,-1.0,0.503906698646843
0.030000000000000027,-1.0,0.5290112033640462
0.040000000000000036,-1.0,0.5520279425438006
0.050000000000000044,-1.0,0.5728660796319128
0.06000000000000005,-1.0,0.5914433760213347
0.07000000000000006,-1.0,0.6076865156103758
0.08000000000000007,-1.0,0.6215313941478643
0.09000000000000008,-1.0,0.6329233722233347
0.10000000000000009,-1.0,0.6418174909038243
0.1100000000000001,-1.0,0.6481786491662362
0.1200000000000001,-1.0,0.6519817424250464
0.13000000000000012,-1.0,0.6532117616086295
0.14000000000000012,-1.0,0.651863852393211
0.15000000000000013,-1.0,0.6479433343606624
0.15999999999999992,-1.0,0.6414656800045444
0.16999999999999993,-1.0,0.6324564536672415
0.17999999999999994,-1.0,0.6209512106491828
0.18999999999999995,-1.0,0.6069953568883157
0.19999999999999996,-1.0,0.5906439697636104
0.20999999999999996,-1.0,0.5719615807298107
0.21999999999999997,-1.0,0.551021920641261
0.22999999999999998,-1.0,0.5279076287699104
0.24,-1.0,0.502709926665859
0.25,-1.0,0.47552825814757693
0.26,-1.0,0.4464698968425823
0.27,-1.0,0.41564952282744355
0.28,-1.0,0.3831887700379095
0.29000000000000004,-1.0,0.3492157462353321
0.30000000000000004,-1.0,0.31386452742386306
0.31000000000000005,-1.0,0.27727462871371467
0.32000000000000006,-1.0,0.2395904537187619
0.33000000000000007,-1.0,0.20096072466144735
0.3400000000000001,-1.0,0.16153789543411606
0.3500000000000001,-1.0,0.12147754993315091
0.3600000000000001,-1.0,0.08093778804041316
0.3700000000000001,-1.0,0.040078601675237906
0.3800000000000001,-1.0,-0.000938756620578126
0.3900000000000001,-1.0,-0.041952410072889884
0.40000000000000013,-1.0,-0.08280049652887697
0.4099999999999999,-1.0,-0.12332180725301316
0.41999999999999993,-1.0,-0.1633564231442961
0.42999999999999994,-1.0,-0.20274634586387946
0.43999999999999995,-1.0,-0.24133612138233274
0.44999999999999996,-1.0,-0.2789734534856762
0.45999999999999996,-1.0,-0.31550980481895896
0.47,-1.0,-0.35080098309534047
0.48,-1.0,-0.384707710157169
0.49,-1.0,-0.4170961716432415
0.5,-1.0,-0.44783854509295384
0.51,-1.0,-0.4768135044031536
0.52,-1.0,-0.5039066986468427
0.53,-1.0,-0.5290112033640457
0.54,-1.0,-0.5520279425438008
0.55,-1.0,-0.5728660796319128
0.56,-1.0,-0.5914433760213342
0.5700000000000001,-1.0,-0.6076865156103758
0.5800000000000001,-1.0,-0.6215313941478641
0.5900000000000001,-1.0,-0.6329233722233347
0.6000000000000001,-1.0,-0.6418174909038248
0.6100000000000001,-1.0,-0.6481786491662365
0.6200000000000001,-1.0,-0.651981742425046
0.6300000000000001,-1.0,-0.6532117616086294
0.6400000000000001,-1.0,-0.651863852393211
0.6500000000000001,-1.0,-0.6479433343606624
0.6600000000000001,-1.0,-0.6414656800045443
0.6699999999999999,-1.0,-0.6324564536672415
0.6799999999999999,-1.0,-0.6209512106491826
0.69,-1.0,-0.6069953568883155
0.7,-1.0,-0.5906439697636106
0.71,-1.0,-0.5719615807298113
0.72,-1.0,-0.5510219206412614
0.73,-1.0,-0.5279076287699105
0.74,-1.0,-0.5027099266658593
0.75,-1.0,-0.47552825814757693
0.76,-1.0,-0.4464698968425823
0.77,-1.0,-0.41564952282744344
0.78,-1.0,-0.38318877003790947
0.79,-1.0,-0.3492157462353322
0.8,-1.0,-0.31386452742386317
0.81,-1.0,-0.27727462871371483
0.8200000000000001,-1.0,-0.23959045371876192
0.8300000000000001,-1.0,-0.2009607246614472
0.8400000000000001,-1.0,-0.161537895434116
0.8500000000000001,-1.0,-0.12147754993315084
0.8600000000000001,-1.0,-0.08093778804041306
0.8700000000000001,-1.0,-0.04007860167523777
0.8800000000000001,-1.0,0.0009387566205781711
0.8900000000000001,-1.0,0.04195241007288991
0.9000000000000001,-1.0,0.08280049652887696
0.9100000000000001,-1.0,0.12332180725301305
0.9199999999999999,-1.0,0.16335642314429616
0.9299999999999999,-1.0,0.20274634586387955
0.94,-1.0,0.24133612138233296
0.95,-1.0,0.2789734534856762
0.96,-1.0,0.3155098048189593
0.97,-1.0,0.35080098309534047
0.98,-1.0,0.3847077101571689
0.99,-1.0,0.41709617164324164
1.0,-1.0,0.44783854509295384

-1.0,-0.99,0.4768135044031532
-0.99,-0.99,0.506219693688016
-0.98,-0.99,0.533628065111672
-0.97,-0.99,0.558930450353805
-0.96,-0.99,0.582026992459425
-0.95,-0.99,0.6028265399286473
-0.94,-0.99,0.6212470064500204
-0.9299999999999999,-0.99,0.6372156948576951
-0.92,-0.99,0.650669584033926
-0.91,-0.99,0.6615555776246319
-0.9,-0.99,0.6698307135864481
-0.89,-0.99,0.6754623337382824
-0.88,-0.99,0.6784282126482387
-0.87,-0.99,0.6787166453472403
-0.86,-0.99,0.676326493523197
-0.85,-0.99,0.6712671900134008
-0.84,-0.99,0.66355870157743
-0.83,-0.99,0.6532314500974677
-0.8200000000000001,-0.99,0.640326192517033
-0.81,-0.99,0.624893859991944
-0.8,-0.99,0.6069953568883153
-0.79,-0.99,0.5867013204208495
-0.78,-0.99,0.5640918418800196
-0.77,-0.99,0.539256150548338
-0.76,-0.99,0.5122922615531427
-0.75,-0.99,0.48330658904566914
-0.74,-0.99,0.45241352623300957
-0.73,-0.99,0.41973499392038827
-0.72,-0.99,0.38539995934544125
-0.71,-0.99,0.34954392720345123
-0.7,-0.99,0.3123084048722194
-0.69,-0.99,0.2738403439470949
-0.6799999999999999,-0.99,0.23429156029016424
-0.6699999999999999,-0.99,0.19381813488240085
-0.6599999999999999,-0.99,0.15257979784333936
-0.6499999999999999,-0.99,0.11073929804926946
-0.64,-0.99,0.068461760837772
-0.63,-0.99,0.025914036333451025
-0.62,-0.99,-0.01673595903328092
-0.61,-0.99,-0.05931990521564088
-0.6,-0.99,-0.10166974283280147
-0.59,-0.99,-0.14361833642348837
-0.5800000000000001,-0.99,-0.18500013405328847
-0.5700000000000001,-0.99,-0.2256518206725018
-0.56,-0.99,-0.26541296264603187
-0.55,-0.99,-0.3041266409116464
-0.54,-0.99,-0.3416400702678286
-0.53,-0.99,-0.37780520234716497
-0.52,-0.99,-0.41247930989561576
-0.51,-0.99,-0.4455255500517805
-0.5,-0.99,-0.4768135044031535
-0.49,-0.99,-0.5062196936880159
-0.48,-0.99,-0.5336280651116717
-0.47,-0.99,-0.558930450353805
-0.45999999999999996,-0.99,-0.582026992459425
-0.44999999999999996,-0.99,-0.6028265399286477
-0.43999999999999995,-0.99,-0.6212470064500204
-0.42999999999999994,-0.99,-0.6372156948576952
-0.42000000000000004,-0.99,-0.6506695840339262
-0.41000000000000003,-0.99,-0.6615555776246325
-0.4,-0.99,-0.6698307135864479
-0.39,-0.99,-0.6754623337382821
-0.38,-0.99,-0.6784282126482388
-0.37,-0.99,-0.6787166453472401
-0.36,-0.99,-0.6763264935231965
-0.35,-0.99,-0.6712671900134008
-0.33999999999999997,-0.99,-0.6635587015774301
-0.32999999999999996,-0.99,-0.6532314500974675
-0.31999999999999995,-0.99,-0.6403261925170327
-0.30999999999999994,-0.99,-0.6248938599919435
-0.29999999999999993,-0.99,-0.606995356888316
-0.29000000000000004,-0.99,-0.5867013204208498
-0.28,-0.99,-0.5640918418800196
-0.27,-0.99,-0.5392561505483378
-0.26,-0.99,-0.5122922615531427
-0.25,-0.99,-0.4833065890456689
-0.24,-0.99,-0.4524135262330096
-0.22999999999999998,-0.99,-0.4197349939203881
-0.21999999999999997,-0.99,-0.38539995934544136
-0.20999999999999996,-0.99,-0.34954392720345157
-0.19999999999999996,-0.99,-0.31230840487221956
-0.18999999999999995,-0.99,-0.2738403439470952
-0.17999999999999994,-0.99,-0.23429156029016457
-0.16999999999999993,-0.99,-0.19381813488240107
-0.16000000000000003,-0.99,-0.15257979784333958
-0.15000000000000002,-0.99,-0.11073929804926959
-0.14,-0.99,-0.06846176083777199
-0.13,-0.99,-0.02591403633345122
-0.12,-0.99,0.0167359590332808
-0.10999999999999999,-0.99,0.05931990521564069
-0.09999999999999998,-0.99,0.10166974283280139
-0.08999999999999997,-0.99,0.1436183364234882
-0.07999999999999996,-0.99,0.18500013405328836
-0.06999999999999995,-0.99,0.22565182067250186
-0.05999999999999994,-0.99,0.26541296264603154
-0.04999999999999993,-0.99,0.3041266409116461
-0.040000000000000036,-0.99,0.3416400702678285
-0.030000000000000027,-0.99,0.37780520234716464
-0.020000000000000018,-0.99,0.4124793098956158
-0.010000000000000009,-0.99,0.4455255500517803
0.0,-0.99,0.47681350440315307
0.010000000000000009,-0.99,0.5062196936880164
0.020000000000000018,-0.99,0.533628065111672
0.030000000000000027,-0.99,0.5589304503538048
0.040000000000000036,-0.99,0.582026992459425
0.050000000000000044,-0.99,0.6028265399286477
0.06000000000000005,-0.99,0.6212470064500203
0.07000000000000006,-0.99,0.6372156948576952
0.08000000000000007,-0.99,0.6506695840339258
0.09000000000000008,-0.99,0.661555577624632
0.10000000000000009,-0.99,0.6698307135864479
0.1100000000000001,-0.99,0.6754623337382824
0.1200000000000001,-0.99,0.6784282126482385
0.13000000000000012,-0.99,0.6787166453472401
0.14000000000000012,-0.99,0.6763264935231967
0.15000000000000013,-0.99,0.6712671900134008
0.15999999999999992,-0.99,0.66355870157743
0.16999999999999993,-0.99,0.6532314500974675
0.17999999999999994,-0.99,0.6403261925170328
0.18999999999999995,-0.99,0.6248938599919436
0.19999999999999996,-0.99,0.6069953568883155
0.20999999999999996,-0.99,0.5867013204208493
0.21999999999999997,-0.99,0.5640918418800196
0.22999999999999998,-0.99,0.539256150548338
0.24,-0.99,0.5122922615531431
0.25,-0.99,0.48330658904566914
0.26,-0.99,0.45241352623300957
0.27,-0.99,0.4197349939203885
0.28,-0.99,0.38539995934544125
0.29000000000000004,-0.99,0.34954392720345134
0.30000000000000004,-0.99,0.3123084048722194
0.31000000000000005,-0.99,0.2738403439470952
0.32000000000000006,-0.99,0.23429156029016443
0.33000000000000007,-0.99,0.19381813488240085
0.3400000000000001,-0.99,0.1525797978433395
0.3500000000000001,-0.99,0.11073929804926957
0.3600000000000001,-0.99,0.06846176083777204
0.3700000000000001,-0.99,0.02591403633345115
0.3800000000000001,-0.99,-0.016735959033280845
0.3900000000000001,-0.99,-0.05931990521564084
0.40000000000000013,-0.99,-0.10166974283280152
0.4099999999999999,-0.99,-0.14361833642348829
0.41999999999999993,-0.99,-0.18500013405328836
0.42999999999999994,-0.99,-0.22565182067250175
0.43999999999999995,-0.99,-0.26541296264603165
0.44999999999999996,-0.99,-0.304126640911646
0.45999999999999996,-0.99,-0.3416400702678283
0.47,-0.99,-0.37780520234716486
0.48,-0.99,-0.41247930989561554
0.49,-0.99,-0.4455255500517805
0.5,-0.99,-0.4768135044031536
0.51,-0.99,-0.5062196936880159
0.52,-0.99,-0.5336280651116716
0.53,-0.99,-0.558930450353805
0.54,-0.99,-0.582026992459425
0.55,-0.99,-0.6028265399286473
0.56,-0.99,-0.6212470064500204
0.5700000000000001,-0.99,-0.6372156948576951
0.5800000000000001,-0.99,-0.6506695840339258
0.5900000000000001,-0.99,-0.6615555776246327
0.6000000000000001,-0.99,-0.6698307135864481
0.6100000000000001,-0.99,-0.6754623337382821
0.6200000000000001,-0.99,-0.6784282126482385
0.6300000000000001,-0.99,-0.6787166453472402
0.6400000000000001,-0.99,-0.6763264935231967
0.6500000000000001,-0.99,-0.6712671900134007
0.6600000000000001,-0.99,-0.6635587015774301
0.6699999999999999,-0.99,-0.6532314500974674
0.6799999999999999,-0.99,-0.6403261925170325
0.69,-0.99,-0.6248938599919438
0.7,-0.99,-0.6069953568883157
0.71,-0.99,-0.5867013204208498
0.72,-0.99,-0.5640918418800196
0.73,-0.99,-0.5392561505483383
0.74,-0.99,-0.5122922615531429
0.75,-0.99,-0.48330658904566914
0.76,-0.99,-0.45241352623300946
0.77,-0.99,-0.4197349939203884
0.78,-0.99,-0.3853999593454413
0.79,-0.99,-0.34954392720345145
0.8,-0.99,-0.3123084048722195
0.81,-0.99,-0.2738403439470952
0.8200000000000001,-0.99,-0.23429156029016435
0.8300000000000001,-0.99,-0.19381813488240077
0.8400000000000001,-0.99,-0.15257979784333947
0.8500000000000001,-0.99,-0.11073929804926948
0.8600000000000001,-0.99,-0.06846176083777189
0.8700000000000001,-0.99,-0.02591403633345111
0.8800000000000001,-0.99,0.016735959033280866
0.8900000000000001,-0.99,0.05931990521564085
0.9000000000000001,-0.99,0.10166974283280145
0.9100000000000001,-0.99,0.1436183364234883
0.9199999999999999,-0.99,0.18500013405328838
0.9299999999999999,-0.99,0.22565182067250197
0.94,-0.99,0.26541296264603165
0.95,-0.99,0.30412664091164626
0.96,-0.99,0.3416400702678283
0.97,-0.99,0.3778052023471647
0.98,-0.99,0.41247930989561576
0.99,-0.99,0.4455255500517806
1.0,-0.99,0.4768135044031532

-1.0,-0.98,0.503906698646843
-0.99,-0.98,0.533628065111672
-0.98,-0.98,0.5612434453949782
-0.97,-0.98,0.5866438542070509
-0.96,-0.98,0.6097290477386514
-0.95,-0.98,0.6304079192775325
-0.94,-0.98,0.6485988587650082
-0.9299999999999999,-0.98,0.6642300748735706
-0.92,-0.98,0.6772398783344629
-0.91,-0.98,0.6875769253970392
-0.9,-0.98,0.6952004204590903
-0.89,-0.98,0.7000802770684504
-0.88,-0.98,0.7021972366604763
-0.87,-0.98,0.7015429445628061
-0.86,-0.98,0.69811998296743
-0.85,-0.98,0.6919418607399641
-0.84,-0.98,0.6830329601063241
-0.83,-0.98,0.6714284404272215
-0.8200000000000001,-0.98,0.6571740994402289
-0.81,-0.98,0.6403261925170323
-0.8,-0.98,0.6209512106491828
-0.79,-0.98,0.5991256180385243
-0.78,-0.98,0.5749355503279264
-0.77,-0.98,0.5484764746632518
-0.76,-0.98,0.519852812928148
-0.75,-0.98,0.48917752963857564
-0.74,-0.98,0.4565716861234751
-0.73,-0.98,0.4221639627510072
-0.72,-0.98,0.3860901510859302
-0.71,-0.98,0.3484926179823285
-0.7,-0.98,0.3095197437266832
-0.69,-0.98,0.26932533644866885
-0.6799999999999999,-0.98,0.22806802511073415
-0.6699999999999999,-0.98,0.1859106334720565
-0.6599999999999999,-0.98,0.14301953749755425
-0.6499999999999999,-0.98,0.09956400874796063
-0.64,-0.98,0.05571554634230745
-0.63,-0.98,0.0116472001292532
-0.62,-0.98,-0.03246711226161161
-0.61,-0.98,-0.07645329179319246
-0.6,-0.98,-0.12013774511025228
-0.59,-0.98,-0.16334806963307685
-0.5800000000000001,-0.98,-0.20591373395169396
-0.5700000000000001,-0.98,-0.24766675083544068
-0.56,-0.98,-0.28844234020181536
-0.55,-0.98,-0.32807957942818405
-0.54,-0.98,-0.366422038439852
-0.53,-0.98,-0.4033183970681036
-0.52,-0.98,-0.43862304224177634
-0.51,-0.98,-0.47219664265552763
-0.5,-0.98,-0.5039066986468426
-0.49,-0.98,-0.5336280651116718
-0.48,-0.98,-0.561243445394978
-0.47,-0.98,-0.5866438542070509
-0.45999999999999996,-0.98,-0.6097290477386517
-0.44999999999999996,-0.98,-0.6304079192775325
-0.43999999999999995,-0.98,-0.6485988587650082
-0.42999999999999994,-0.98,-0.6642300748735707
-0.42000000000000004,-0.98,-0.6772398783344634
-0.41000000000000003,-0.98,-0.687576925397039
-0.4,-0.98,-0.6952004204590898
-0.39,-0.98,-0.7000802770684506
-0.38,-0.98,-0.7021972366604763
-0.37,-0.98,-0.7015429445628055
-0.36,-0.98,-0.69811998296743
-0.35,-0.98,-0.6919418607399641
-0.33999999999999997,-0.98,-0.683032960106324
-0.32999999999999996,-0.98,-0.6714284404272213
-0.31999999999999995,-0.98,-0.6571740994402282
-0.30999999999999994,-0.98,-0.6403261925170329
-0.29999999999999993,-0.98,-0.620951210649183
-0.29000000000000004,-0.98,-0.5991256180385243
-0.28,-0.98,-0.5749355503279261
-0.27,-0.98,-0.548476474663252
-0.26,-0.98,-0.5198528129281479
-0.25,-0.98,-0.4891775296385757
-0.24,-0.98,-0.456571686123475
-0.22999999999999998,-0.98,-0.4221639627510073
-0.21999999999999997,-0.98,-0.3860901510859305
-0.20999999999999996,-0.98,-0.34849261798232867
-0.19999999999999996,-0.98,-0.30951974372668356
-0.18999999999999995,-0.98,-0.2693253364486693
-0.17999999999999994,-0.98,-0.22806802511073437
-0.16999999999999993,-0.98,-0.18591063347205672
-0.16000000000000003,-0.98,-0.14301953749755436
-0.15000000000000002,-0.98,-0.09956400874796062
-0.14,-0.98,-0.05571554634230766
-0.13,-0.98,-0.01164720012925333
-0.12,-0.98,0.032467112261611406
-0.10999999999999999,-0.98,0.07645329179319235
-0.09999999999999998,-0.98,0.12013774511025208
-0.08999999999999997,-0.98,0.16334806963307671
-0.07999999999999996,-0.98,0.205913733951694
-0.06999999999999995,-0.98,0.24766675083544046
-0.05999999999999994,-0.98,0.28844234020181514
-0.04999999999999993,-0.98,0.3280795794281839
-0.040000000000000036,-0.98,0.36642203843985177
-0.030000000000000027,-0.98,0.4033183970681036
-0.020000000000000018,-0.98,0.4386230422417762
-0.010000000000000009,-0.98,0.4721966426555272
0.0,-0.98,0.5039066986468432
0.010000000000000009,-0.98,0.533628065111672
0.020000000000000018,-0.98,0.5612434453949782
0.030000000000000027,-0.98,0.5866438542070509
0.040000000000000036,-0.98,0.6097290477386517
0.050000000000000044,-0.98,0.6304079192775325
0.06000000000000005,-0.98,0.6485988587650082
0.07000000000000006,-0.98,0.6642300748735704
0.08000000000000007,-0.98,0.677239878334463
0.09000000000000008,-0.98,0.6875769253970391
0.10000000000000009,-0.98,0.6952004204590905
0.1100000000000001,-0.98,0.7000802770684498
0.1200000000000001,-0.98,0.7021972366604763
0.13000000000000012,-0.98,0.7015429445628059
0.14000000000000012,-0.98,0.6981199829674299
0.15000000000000013,-0.98,0.6919418607399643
0.15999999999999992,-0.98,0.6830329601063241
0.16999999999999993,-0.98,0.6714284404272214
0.17999999999999994,-0.98,0.6571740994402283
0.18999999999999995,-0.98,0.6403261925170327
0.19999999999999996,-0.98,0.6209512106491828
0.20999999999999996,-0.98,0.5991256180385243
0.21999999999999997,-0.98,0.5749355503279263
0.22999999999999998,-0.98,0.5484764746632522
0.24,-0.98,0.519852812928148
0.25,-0.98,0.48917752963857564
0.26,-0.98,0.45657168612347543
0.27,-0.98,0.4221639627510073
0.28,-0.98,0.3860901510859302
0.29000000000000004,-0.98,0.3484926179823285
0.30000000000000004,-0.98,0.30951974372668356
0.31000000000000005,-0.98,0.2693253364486691
0.32000000000000006,-0.98,0.2280680251107341
0.33000000000000007,-0.98,0.18591063347205666
0.3400000000000001,-0.98,0.14301953749755436
0.3500000000000001,-0.98,0.09956400874796069
0.3600000000000001,-0.98,0.055715546342307576
0.3700000000000001,-0.98,0.011647200129253289
0.3800000000000001,-0.98,-0.032467112261611544
0.3900000000000001,-0.98,-0.07645329179319246
0.40000000000000013,-0.98,-0.1201377451102522
0.4099999999999999,-0.98,-0.16334806963307674
0.41999999999999993,-0.98,-0.20591373395169393
0.42999999999999994,-0.98,-0.24766675083544054
0.43999999999999995,-0.98,-0.28844234020181503
0.44999999999999996,-0.98,-0.3280795794281837
0.45999999999999996,-0.98,-0.3664220384398518
0.47,-0.98,-0.40331839706810335
0.48,-0.98,-0.4386230422417764
0.49,-0.98,-0.47219664265552763
0.5,-0.98,-0.5039066986468427
0.51,-0.98,-0.5336280651116716
0.52,-0.98,-0.5612434453949782
0.53,-0.98,-0.5866438542070509
0.54,-0.98,-0.6097290477386514
0.55,-0.98,-0.6304079192775325
0.56,-0.98,-0.6485988587650082
0.5700000000000001,-0.98,-0.6642300748735704
0.5800000000000001,-0.98,-0.6772398783344638
0.5900000000000001,-0.98,-0.6875769253970393
0.6000000000000001,-0.98,-0.69520042045909
0.6100000000000001,-0.98,-0.70008027706845
0.6200000000000001,-0.98,-0.7021972366604765
0.6300000000000001,-0.98,-0.7015429445628057
0.6400000000000001,-0.98,-0.69811998296743
0.6500000000000001,-0.98,-0.6919418607399643
0.6600000000000001,-0.98,-0.6830329601063237
0.6699999999999999,-0.98,-0.6714284404272212
0.6799999999999999,-0.98,-0.6571740994402285
0.69,-0.98,-0.6403261925170329
0.7,-0.98,-0.620951210649183
0.71,-0.98,-0.5991256180385243
0.72,-0.98,-0.5749355503279265
0.73,-0.98,-0.5484764746632521
0.74,-0.98,-0.5198528129281481
0.75,-0.98,-0.4891775296385754
0.76,-0.98,-0.45657168612347526
0.77,-0.98,-0.4221639627510074
0.78,-0.98,-0.3860901510859303
0.79,-0.98,-0.34849261798232867
0.8,-0.98,-0.3095197437266835
0.81,-0.98,-0.269325336448669
0.8200000000000001,-0.98,-0.2280680251107341
0.8300000000000001,-0.98,-0.18591063347205655
0.8400000000000001,-0.98,-0.14301953749755425
0.8500000000000001,-0.98,-0.09956400874796054
0.8600000000000001,-0.98,-0.05571554634230755
0.8700000000000001,-0.98,-0.011647200129253263
0.8800000000000001,-0.98,0.03246711226161157
0.8900000000000001,-0.98,0.07645329179319241
0.9000000000000001,-0.98,0.12013774511025219
0.9100000000000001,-0.98,0.16334806963307674
0.9199999999999999,-0.98,0.2059137339516941
0.9299999999999999,-0.98,0.2476667508354405
0.94,-0.98,0.28844234020181525
0.95,-0.98,0.3280795794281838
0.96,-0.98,0.36642203843985177
0.97,-0.98,0.40331839706810363
0.98,-0.98,0.43862304224177656
0.99,-0.98,0.4721966426555273
1.0,-0.98,0.503906698646843

-1.0,-0.97,0.5290112033640462
-0.99,-0.97,0.5589304503538048
-0.98,-0.97,0.5866438542070509
-0.97,-0.97,0.6120420427798247
-0.96,-0.97,0.6350247810251582
-0.95,-0.97,0.6555013665750123
-0.94,-0.97,0.6733909877010829
-0.9299999999999999,-0.97,0.6886230422417758
-0.92,-0.97,0.7011374162366837
-0.91,-0.97,0.7108847211689211
-0.9,-0.97,0.7178264888790417
-0.89,-0.97,0.7219353233812842
-0.88,-0.97,0.7231950089830175
-0.87,-0.97,0.7216005742806664
-0.86,-0.97,0.7171583117795732
-0.85,-0.97,0.7098857530603533
-0.84,-0.97,0.6998115995897556
-0.83,-0.97,0.6869756094490853
-0.8200000000000001,-0.97,0.6714284404272209
-0.81,-0.97,0.6532314500974674
-0.8,-0.97,0.6324564536672412
-0.79,-0.97,0.6091854405562598
-0.78,-0.97,0.5835102508217564
-0.77,-0.97,0.5555322127077362
-0.76,-0.97,0.5253617427486849
-0.75,-0.97,0.493117910005954
-0.74,-0.97,0.45892796615657316
-0.73,-0.97,0.42292684328901703
-0.72,-0.97,0.3852566213878946
-0.71,-0.97,0.34606596760916225
-0.7,-0.97,0.30550954955877796
-0.69,-0.97,0.26374742489032243
-0.6799999999999999,-0.97,0.22094440963056114
-0.6699999999999999,-0.97,0.17726942772588755
-0.6599999999999999,-0.97,0.13289484437667776
-0.6499999999999999,-0.97,0.08799578579059224
-0.64,-0.97,0.04274944803944183
-0.63,-0.97,-0.002665602252755181
-0.62,-0.97,-0.048070132630658347
-0.61,-0.97,-0.093284952156223
-0.6,-0.97,-0.1381316185934678
-0.59,-0.97,-0.1824331426384579
-0.5800000000000001,-0.97,-0.22601468641522907
-0.5700000000000001,-0.97,-0.26870425348100746
-0.56,-0.97,-0.3103333676175929
-0.55,-0.97,-0.350737737730021
-0.54,-0.97,-0.3897579062284591
-0.53,-0.97,-0.4272398783344634
-0.52,-0.97,-0.46303572982801544
-0.51,-0.97,-0.4970041908368384
-0.5,-0.97,-0.529011203364046
-0.49,-0.97,-0.5589304503538047
-0.48,-0.97,-0.5866438542070509
-0.47,-0.97,-0.612042042779825
-0.45999999999999996,-0.97,-0.6350247810251586
-0.44999999999999996,-0.97,-0.6555013665750123
-0.43999999999999995,-0.97,-0.6733909877010829
-0.42999999999999994,-0.97,-0.6886230422417763
-0.42000000000000004,-0.97,-0.7011374162366837
-0.41000000000000003,-0.97,-0.7108847211689209
-0.4,-0.97,-0.7178264888790415
-0.39,-0.97,-0.721935323381284
-0.38,-0.97,-0.723195008983017
-0.37,-0.97,-0.7216005742806663
-0.36,-0.97,-0.7171583117795732
-0.35,-0.97,-0.7098857530603533
-0.33999999999999997,-0.97,-0.6998115995897556
-0.32999999999999996,-0.97,-0.6869756094490846
-0.31999999999999995,-0.97,-0.6714284404272215
-0.30999999999999994,-0.97,-0.6532314500974677
-0.29999999999999993,-0.97,-0.6324564536672415
-0.29000000000000004,-0.97,-0.6091854405562593
-0.28,-0.97,-0.5835102508217566
-0.27,-0.97,-0.555532212707736
-0.26,-0.97,-0.5253617427486849
-0.25,-0.97,-0.49311791000595384
-0.24,-0.97,-0.45892796615657333
-0.22999999999999998,-0.97,-0.4229268432890174
-0.21999999999999997,-0.97,-0.38525662138789474
-0.20999999999999996,-0.97,-0.3460659676091624
-0.19999999999999996,-0.97,-0.30550954955877846
-0.18999999999999995,-0.97,-0.2637474248903227
-0.17999999999999994,-0.97,-0.2209444096305614
-0.16999999999999993,-0.97,-0.17726942772588766
-0.16000000000000003,-0.97,-0.13289484437667773
-0.15000000000000002,-0.97,-0.08799578579059242
-0.14,-0.97,-0.042749448039441945
-0.13,-0.97,0.002665602252754971
-0.12,-0.97,0.04807013263065822
-0.10999999999999999,-0.97,0.0932849521562228
-0.09999999999999998,-0.97,0.13813161859346768
-0.08999999999999997,-0.97,0.18243314263845783
-0.07999999999999996,-0.97,0.22601468641522893
-0.06999999999999995,-0.97,0.2687042534810073
-0.05999999999999994,-0.97,0.31033336761759267
-0.04999999999999993,-0.97,0.3507377377300208
-0.040000000000000036,-0.97,0.38975790622845896
-0.030000000000000027,-0.97,0.4272398783344632
-0.020000000000000018,-0.97,0.463035729828015
-0.010000000000000009,-0.97,0.4970041908368391
0.0,-0.97,0.5290112033640462
0.010000000000000009,-0.97,0.558930450353805
0.020000000000000018,-0.97,0.5866438542070509
0.030000000000000027,-0.97,0.6120420427798248
0.040000000000000036,-0.97,0.6350247810251584
0.050000000000000044,-0.97,0.6555013665750123
0.06000000000000005,-0.97,0.6733909877010826
0.07000000000000006,-0.97,0.6886230422417758
0.08000000000000007,-0.97,0.7011374162366836
0.09000000000000008,-0.97,0.7108847211689214
0.10000000000000009,-0.97,0.717826488879041
0.1100000000000001,-0.97,0.721935323381284
0.1200000000000001,-0.97,0.7231950089830175
0.13000000000000012,-0.97,0.721600574280666
0.14000000000000012,-0.97,0.7171583117795733
0.15000000000000013,-0.97,0.7098857530603534
0.15999999999999992,-0.97,0.6998115995897556
0.16999999999999993,-0.97,0.6869756094490849
0.17999999999999994,-0.97,0.6714284404272213
0.18999999999999995,-0.97,0.6532314500974675
0.19999999999999996,-0.97,0.6324564536672412
0.20999999999999996,-0.97,0.6091854405562596
0.21999999999999997,-0.97,0.5835102508217569
0.22999999999999998,-0.97,0.5555322127077362
0.24,-0.97,0.5253617427486849
0.25,-0.97,0.4931179100059544
0.26,-0.97,0.45892796615657333
0.27,-0.97,0.4229268432890171
0.28,-0.97,0.3852566213878945
0.29000000000000004,-0.97,0.34606596760916253
0.30000000000000004,-0.97,0.3055095495587782
0.31000000000000005,-0.97,0.2637474248903224
0.32000000000000006,-0.97,0.22094440963056133
0.33000000000000007,-0.97,0.17726942772588766
0.3400000000000001,-0.97,0.13289484437667784
0.3500000000000001,-0.97,0.08799578579059233
0.3600000000000001,-0.97,0.04274944803944193
0.3700000000000001,-0.97,-0.002665602252755096
0.3800000000000001,-0.97,-0.04807013263065833
0.3900000000000001,-0.97,-0.09328495215622291
0.40000000000000013,-0.97,-0.13813161859346768
0.4099999999999999,-0.97,-0.1824331426384578
0.41999999999999993,-0.97,-0.22601468641522893
0.42999999999999994,-0.97,-0.2687042534810072
0.43999999999999995,-0.97,-0.31033336761759256
0.44999999999999996,-0.97,-0.35073773773002076
0.45999999999999996,-0.97,-0.38975790622845874
0.47,-0.97,-0.4272398783344634
0.48,-0.97,-0.4630357298280155
0.49,-0.97,-0.49700419083683856
0.5,-0.97,-0.5290112033640457
0.51,-0.97,-0.5589304503538048
0.52,-0.97,-0.5866438542070509
0.53,-0.97,-0.6120420427798248
0.54,-0.97,-0.6350247810251582
0.55,-0.97,-0.6555013665750125
0.56,-0.97,-0.6733909877010826
0.5700000000000001,-0.97,-0.6886230422417767
0.5800000000000001,-0.97,-0.7011374162366839
0.5900000000000001,-0.97,-0.7108847211689211
0.6000000000000001,-0.97,-0.7178264888790412
0.6100000000000001,-0.97,-0.7219353233812843
0.6200000000000001,-0.97,-0.7231950089830174
0.6300000000000001,-0.97,-0.7216005742806662
0.6400000000000001,-0.97,-0.7171583117795735
0.6500000000000001,-0.97,-0.709885753060353
0.6600000000000001,-0.97,-0.6998115995897554
0.6699999999999999,-0.97,-0.6869756094490849