TITLE = "Solution" 
VARIABLES = "x", "y", "sol" 
ZONE STRANDID=1, SOLUTIONTIME= 1.8499999999999825, I= 201, J =201, DATAPACKING=POINT 
-1.0,-1.0,0.3952626535400524
-0.99,-1.0,0.42434135936241146
-0.98,-1.0,0.45174538370249395
-0.97,-1.0,0.47736657539593674
-0.96,-1.0,0.5011038193043352
-0.95,-1.0,0.5228634353704986
-0.94,-1.0,0.5425595483308359
-0.9299999999999999,-1.0,0.5601144266257913
-0.92,-1.0,0.5754587891707952
-0.91,-1.0,0.5885320787770549
-0.9,-1.0,0.5992827011431124
-0.89,-1.0,0.6076682284739818
-0.88,-1.0,0.6136555669242701
-0.87,-1.0,0.6172210872044698
-0.86,-1.0,0.6183507178349663
-0.85,-1.0,0.6170400006797384
-0.84,-1.0,0.6132941085405899
-0.83,-1.0,0.6071278247424579
-0.8200000000000001,-1.0,0.5985654847903865
-0.81,-1.0,0.5876408803284056
-0.8,-1.0,0.5743971257793501
-0.79,-1.0,0.5588864881919284
-0.78,-1.0,0.5411701809665621
-0.77,-1.0,0.521318122274059
-0.76,-1.0,0.4994086591205356
-0.75,-1.0,0.47552825814757693
-0.74,-1.0,0.44977116438790565
-0.73,-1.0,0.42223902932329505
-0.72,-1.0,0.3930405097126084
-0.71,-1.0,0.362290838773215
-0.7,-1.0,0.33011137140812374
-0.69,-1.0,0.29662910527362485
-0.6799999999999999,-1.0,0.2619761795775582
-0.6699999999999999,-1.0,0.22628935358623087
-0.6599999999999999,-1.0,0.18970946689807053
-0.6499999999999999,-1.0,0.15238088361407484
-0.64,-1.0,0.11445092259865788
-0.63,-1.0,0.07606927607939709
-0.62,-1.0,0.037387418880197316
-0.61,-1.0,-0.0014419893806355537
-0.6,-1.0,-0.04026570676816545
-0.59,-1.0,-0.078930513806733
-0.5800000000000001,-1.0,-0.11728381816722683
-0.5700000000000001,-1.0,-0.15517425687929445
-0.56,-1.0,-0.19245229369183428
-0.55,-1.0,-0.22897080922426197
-0.54,-1.0,-0.2645856815794939
-0.53,-1.0,-0.29915635512723115
-0.52,-1.0,-0.33254639521281953
-0.51,-1.0,-0.3646240266024998
-0.5,-1.0,-0.3952626535400522
-0.49,-1.0,-0.42434135936241135
-0.48,-1.0,-0.45174538370249373
-0.47,-1.0,-0.4773665753959364
-0.45999999999999996,-1.0,-0.5011038193043356
-0.44999999999999996,-1.0,-0.5228634353704988
-0.43999999999999995,-1.0,-0.5425595483308359
-0.42999999999999994,-1.0,-0.5601144266257905
-0.42000000000000004,-1.0,-0.575458789170795
-0.41000000000000003,-1.0,-0.5885320787770549
-0.4,-1.0,-0.5992827011431128
-0.39,-1.0,-0.6076682284739819
-0.38,-1.0,-0.6136555669242709
-0.37,-1.0,-0.6172210872044704
-0.36,-1.0,-0.6183507178349664
-0.35,-1.0,-0.6170400006797383
-0.33999999999999997,-1.0,-0.6132941085405902
-0.32999999999999996,-1.0,-0.6071278247424577
-0.31999999999999995,-1.0,-0.5985654847903862
-0.30999999999999994,-1.0,-0.5876408803284059
-0.29999999999999993,-1.0,-0.5743971257793498
-0.29000000000000004,-1.0,-0.5588864881919282
-0.28,-1.0,-0.5411701809665624
-0.27,-1.0,-0.5213181222740594
-0.26,-1.0,-0.49940865912053567
-0.25,-1.0,-0.4755282581475768
-0.24,-1.0,-0.4497711643879059
-0.22999999999999998,-1.0,-0.42223902932329493
-0.21999999999999997,-1.0,-0.39304050971260857
-0.20999999999999996,-1.0,-0.362290838773215
-0.19999999999999996,-1.0,-0.33011137140812385
-0.18999999999999995,-1.0,-0.2966291052736247
-0.17999999999999994,-1.0,-0.2619761795775582
-0.16999999999999993,-1.0,-0.22628935358623076
-0.16000000000000003,-1.0,-0.18970946689807047
-0.15000000000000002,-1.0,-0.1523808836140747
-0.14,-1.0,-0.11445092259865798
-0.13,-1.0,-0.07606927607939698
-0.12,-1.0,-0.03738741888019733
-0.10999999999999999,-1.0,0.0014419893806355295
-0.09999999999999998,-1.0,0.040265706768165405
-0.08999999999999997,-1.0,0.07893051380673291
-0.07999999999999996,-1.0,0.11728381816722694
-0.06999999999999995,-1.0,0.15517425687929465
-0.05999999999999994,-1.0,0.1924522936918345
-0.04999999999999993,-1.0,0.2289708092242619
-0.040000000000000036,-1.0,0.26458568157949364
-0.030000000000000027,-1.0,0.29915635512723127
-0.020000000000000018,-1.0,0.33254639521281976
-0.010000000000000009,-1.0,0.36462402660250004
0.0,-1.0,0.39526265354005197
0.010000000000000009,-1.0,0.42434135936241163
0.020000000000000018,-1.0,0.45174538370249384
0.030000000000000027,-1.0,0.47736657539593674
0.040000000000000036,-1.0,0.5011038193043353
0.050000000000000044,-1.0,0.5228634353704985
0.06000000000000005,-1.0,0.542559548330836
0.07000000000000006,-1.0,0.5601144266257911
0.08000000000000007,-1.0,0.575458789170795
0.09000000000000008,-1.0,0.588532078777055
0.10000000000000009,-1.0,0.5992827011431129
0.1100000000000001,-1.0,0.6076682284739823
0.1200000000000001,-1.0,0.6136555669242707
0.13000000000000012,-1.0,0.6172210872044702
0.14000000000000012,-1.0,0.6183507178349661
0.15000000000000013,-1.0,0.6170400006797382
0.15999999999999992,-1.0,0.61329410854059
0.16999999999999993,-1.0,0.6071278247424579
0.17999999999999994,-1.0,0.5985654847903861
0.18999999999999995,-1.0,0.5876408803284061
0.19999999999999996,-1.0,0.5743971257793499
0.20999999999999996,-1.0,0.5588864881919282
0.21999999999999997,-1.0,0.5411701809665619
0.22999999999999998,-1.0,0.5213181222740588
0.24,-1.0,0.4994086591205355
0.25,-1.0,0.4755282581475766
0.26,-1.0,0.44977116438790565
0.27,-1.0,0.42223902932329516
0.28,-1.0,0.39304050971260873
0.29000000000000004,-1.0,0.362290838773215
0.30000000000000004,-1.0,0.33011137140812363
0.31000000000000005,-1.0,0.29662910527362496
0.32000000000000006,-1.0,0.26197617957755814
0.33000000000000007,-1.0,0.22628935358623092
0.3400000000000001,-1.0,0.18970946689807056
0.3500000000000001,-1.0,0.15238088361407504
0.3600000000000001,-1.0,0.11445092259865805
0.3700000000000001,-1.0,0.07606927607939715
0.3800000000000001,-1.0,0.037387418880197476
0.3900000000000001,-1.0,-0.0014419893806353994
0.40000000000000013,-1.0,-0.04026570676816531
0.4099999999999999,-1.0,-0.07893051380673287
0.41999999999999993,-1.0,-0.11728381816722686
0.42999999999999994,-1.0,-0.15517425687929456
0.43999999999999995,-1.0,-0.1924522936918341
0.44999999999999996,-1.0,-0.2289708092242618
0.45999999999999996,-1.0,-0.26458568157949375
0.47,-1.0,-0.29915635512723115
0.48,-1.0,-0.3325463952128196
0.49,-1.0,-0.3646240266024996
0.5,-1.0,-0.3952626535400522
0.51,-1.0,-0.4243413593624116
0.52,-1.0,-0.4517453837024936
0.53,-1.0,-0.4773665753959369
0.54,-1.0,-0.5011038193043353
0.55,-1.0,-0.5228634353704983
0.56,-1.0,-0.5425595483308361
0.5700000000000001,-1.0,-0.5601144266257909
0.5800000000000001,-1.0,-0.575458789170795
0.5900000000000001,-1.0,-0.5885320787770549
0.6000000000000001,-1.0,-0.5992827011431128
0.6100000000000001,-1.0,-0.6076682284739819
0.6200000000000001,-1.0,-0.6136555669242707
0.6300000000000001,-1.0,-0.6172210872044707
0.6400000000000001,-1.0,-0.6183507178349659
0.6500000000000001,-1.0,-0.6170400006797383
0.6600000000000001,-1.0,-0.6132941085405895
0.6699999999999999,-1.0,-0.6071278247424577
0.6799999999999999,-1.0,-0.5985654847903863
0.69,-1.0,-0.5876408803284054
0.7,-1.0,-0.5743971257793501
0.71,-1.0,-0.5588864881919283
0.72,-1.0,-0.5411701809665621
0.73,-1.0,-0.5213181222740588
0.74,-1.0,-0.49940865912053545
0.75,-1.0,-0.475528258147577
0.76,-1.0,-0.4497711643879062
0.77,-1.0,-0.42223902932329505
0.78,-1.0,-0.3930405097126087
0.79,-1.0,-0.3622908387732149
0.8,-1.0,-0.33011137140812363
0.81,-1.0,-0.29662910527362474
0.8200000000000001,-1.0,-0.2619761795775583
0.8300000000000001,-1.0,-0.22628935358623098
0.8400000000000001,-1.0,-0.18970946689807056
0.8500000000000001,-1.0,-0.15238088361407484
0.8600000000000001,-1.0,-0.11445092259865794
0.8700000000000001,-1.0,-0.07606927607939712
0.8800000000000001,-1.0,-0.037387418880197476
0.8900000000000001,-1.0,0.0014419893806354618
0.9000000000000001,-1.0,0.04026570676816535
0.9100000000000001,-1.0,0.07893051380673291
0.9199999999999999,-1.0,0.11728381816722694
0.9299999999999999,-1.0,0.15517425687929454
0.94,-1.0,0.1924522936918342
0.95,-1.0,0.22897080922426205
0.96,-1.0,0.2645856815794938
0.97,-1.0,0.29915635512723115
0.98,-1.0,0.33254639521281976
0.99,-1.0,0.3646240266024999
1.0,-1.0,0.3952626535400524

-1.0,-0.99,0.42434135936241146
-0.99,-0.99,0.4536438021351149
-0.98,-0.99,0.48115592007093
-0.97,-0.99,0.5067691354094555
-0.96,-0.99,0.5303823644913157
-0.95,-0.99,0.5519024166891819
-0.94,-0.99,0.5712443621886065
-0.9299999999999999,-0.99,0.588331867167197
-0.92,-0.99,0.6030974950493414
-0.91,-0.99,0.6154829726475626
-0.9,-0.99,0.6254394201401676
-0.89,-0.99,0.6329275439775702
-0.88,-0.99,0.6379177919559837
-0.87,-0.99,0.6403904698464649
-0.86,-0.99,0.6403358191190371
-0.85,-0.99,0.6377540554551557
-0.84,-0.99,0.6326553678965063
-0.83,-0.99,0.6250598786335133
-0.8200000000000001,-0.99,0.6149975635922491
-0.81,-0.99,0.6025081341331475
-0.8,-0.99,0.5876408803284059
-0.79,-0.99,0.5704544764365889
-0.78,-0.99,0.5510167493421367
-0.77,-0.99,0.5294044108736389
-0.76,-0.99,0.5057027550572917
-0.75,-0.99,0.4800053215003456
-0.74,-0.99,0.4524135262330098
-0.73,-0.99,0.4230362614657116
-0.72,-0.99,0.3919894658412928
-0.71,-0.99,0.3593956668781504
-0.7,-0.99,0.3253834974101022
-0.69,-0.99,0.2900871879313558
-0.6799999999999999,-0.99,0.25364603685007436
-0.6699999999999999,-0.99,0.2162038607411973
-0.6599999999999999,-0.99,0.17790842676812318
-0.6499999999999999,-0.99,0.1389108695132239
-0.64,-0.99,0.09936509451869584
-0.63,-0.99,0.0594271708916959
-0.62,-0.99,0.019254715370878417
-0.61,-0.99,-0.020993729714865322
-0.6,-0.99,-0.061159322140547256
-0.59,-0.99,-0.10108354666277676
-0.5800000000000001,-0.99,-0.14060884060700807
-0.5700000000000001,-0.99,-0.17957921569543253
-0.56,-0.99,-0.21784087366144675
-0.55,-0.99,-0.25524281322114784
-0.54,-0.99,-0.29163742600641396
-0.53,-0.99,-0.32688107910769926
-0.52,-0.99,-0.36083468192750656
-0.51,-0.99,-0.3933642351074312
-0.5,-0.99,-0.42434135936241135
-0.49,-0.99,-0.4536438021351148
-0.48,-0.99,-0.4811559200709297
-0.47,-0.99,-0.5067691354094559
-0.45999999999999996,-0.99,-0.530382364491316
-0.44999999999999996,-0.99,-0.5519024166891819
-0.43999999999999995,-0.99,-0.5712443621886059
-0.42999999999999994,-0.99,-0.5883318671671965
-0.42000000000000004,-0.99,-0.6030974950493413
-0.41000000000000003,-0.99,-0.6154829726475628
-0.4,-0.99,-0.6254394201401676
-0.39,-0.99,-0.632927543977571
-0.38,-0.99,-0.6379177919559845
-0.37,-0.99,-0.6403904698464651
-0.36,-0.99,-0.6403358191190371
-0.35,-0.99,-0.6377540554551564
-0.33999999999999997,-0.99,-0.6326553678965061
-0.32999999999999996,-0.99,-0.6250598786335131
-0.31999999999999995,-0.99,-0.6149975635922496
-0.30999999999999994,-0.99,-0.6025081341331473
-0.29999999999999993,-0.99,-0.5876408803284056
-0.29000000000000004,-0.99,-0.5704544764365892
-0.28,-0.99,-0.5510167493421372
-0.27,-0.99,-0.5294044108736389
-0.26,-0.99,-0.5057027550572915
-0.25,-0.99,-0.4800053215003457
-0.24,-0.99,-0.4524135262330097
-0.22999999999999998,-0.99,-0.4230362614657118
-0.21999999999999997,-0.99,-0.39198946584129274
-0.20999999999999996,-0.99,-0.3593956668781505
-0.19999999999999996,-0.99,-0.3253834974101021
-0.18999999999999995,-0.99,-0.29008718793135585
-0.17999999999999994,-0.99,-0.25364603685007425
-0.16999999999999993,-0.99,-0.21620386074119724
-0.16000000000000003,-0.99,-0.17790842676812302
-0.15000000000000002,-0.99,-0.138910869513224
-0.14,-0.99,-0.09936509451869568
-0.13,-0.99,-0.05942717089169591
-0.12,-0.99,-0.01925471537087846
-0.10999999999999999,-0.99,0.020993729714865267
-0.09999999999999998,-0.99,0.061159322140547194
-0.08999999999999997,-0.99,0.10108354666277689
-0.07999999999999996,-0.99,0.14060884060700823
-0.06999999999999995,-0.99,0.17957921569543275
-0.05999999999999994,-0.99,0.21784087366144672
-0.04999999999999993,-0.99,0.2552428132211475
-0.040000000000000036,-0.99,0.29163742600641407
-0.030000000000000027,-0.99,0.32688107910769937
-0.020000000000000018,-0.99,0.3608346819275067
-0.010000000000000009,-0.99,0.3933642351074309
0.0,-0.99,0.4243413593624117
0.010000000000000009,-0.99,0.4536438021351149
0.020000000000000018,-0.99,0.4811559200709301
0.030000000000000027,-0.99,0.5067691354094557
0.040000000000000036,-0.99,0.5303823644913157
0.050000000000000044,-0.99,0.5519024166891822
0.06000000000000005,-0.99,0.5712443621886064
0.07000000000000006,-0.99,0.5883318671671969
0.08000000000000007,-0.99,0.6030974950493414
0.09000000000000008,-0.99,0.615482972647563
0.10000000000000009,-0.99,0.6254394201401678
0.1100000000000001,-0.99,0.6329275439775708
0.1200000000000001,-0.99,0.6379177919559842
0.13000000000000012,-0.99,0.6403904698464645
0.14000000000000012,-0.99,0.6403358191190369
0.15000000000000013,-0.99,0.637754055455156
0.15999999999999992,-0.99,0.6326553678965061
0.16999999999999993,-0.99,0.6250598786335129
0.17999999999999994,-0.99,0.6149975635922497
0.18999999999999995,-0.99,0.6025081341331473
0.19999999999999996,-0.99,0.5876408803284057
0.20999999999999996,-0.99,0.5704544764365885
0.21999999999999997,-0.99,0.5510167493421367
0.22999999999999998,-0.99,0.5294044108736389
0.24,-0.99,0.5057027550572912
0.25,-0.99,0.48000532150034547
0.26,-0.99,0.4524135262330099
0.27,-0.99,0.42303626146571194
0.28,-0.99,0.3919894658412928
0.29000000000000004,-0.99,0.3593956668781504
0.30000000000000004,-0.99,0.32538349741010225
0.31000000000000005,-0.99,0.2900871879313558
0.32000000000000006,-0.99,0.25364603685007436
0.33000000000000007,-0.99,0.2162038607411973
0.3400000000000001,-0.99,0.1779084267681234
0.3500000000000001,-0.99,0.13891086951322412
0.3600000000000001,-0.99,0.09936509451869588
0.3700000000000001,-0.99,0.05942717089169608
0.3800000000000001,-0.99,0.019254715370878587
0.3900000000000001,-0.99,-0.02099372971486517
0.40000000000000013,-0.99,-0.06115932214054714
0.4099999999999999,-0.99,-0.10108354666277677
0.41999999999999993,-0.99,-0.14060884060700812
0.42999999999999994,-0.99,-0.17957921569543234
0.43999999999999995,-0.99,-0.21784087366144655
0.44999999999999996,-0.99,-0.25524281322114767
0.45999999999999996,-0.99,-0.291637426006414
0.47,-0.99,-0.3268810791076992
0.48,-0.99,-0.3608346819275063
0.49,-0.99,-0.3933642351074311
0.5,-0.99,-0.4243413593624116
0.51,-0.99,-0.45364380213511457
0.52,-0.99,-0.4811559200709302
0.53,-0.99,-0.5067691354094557
0.54,-0.99,-0.5303823644913154
0.55,-0.99,-0.5519024166891822
0.56,-0.99,-0.5712443621886061
0.5700000000000001,-0.99,-0.5883318671671968
0.5800000000000001,-0.99,-0.6030974950493413
0.5900000000000001,-0.99,-0.6154829726475628
0.6000000000000001,-0.99,-0.6254394201401676
0.6100000000000001,-0.99,-0.6329275439775708
0.6200000000000001,-0.99,-0.6379177919559846
0.6300000000000001,-0.99,-0.6403904698464644
0.6400000000000001,-0.99,-0.640335819119037
0.6500000000000001,-0.99,-0.6377540554551555
0.6600000000000001,-0.99,-0.6326553678965059
0.6699999999999999,-0.99,-0.625059878633513
0.6799999999999999,-0.99,-0.614997563592249
0.69,-0.99,-0.6025081341331475
0.7,-0.99,-0.5876408803284057
0.71,-0.99,-0.5704544764365889
0.72,-0.99,-0.5510167493421365
0.73,-0.99,-0.5294044108736389
0.74,-0.99,-0.5057027550572917
0.75,-0.99,-0.48000532150034614
0.76,-0.99,-0.4524135262330097
0.77,-0.99,-0.4230362614657118
0.78,-0.99,-0.3919894658412927
0.79,-0.99,-0.3593956668781504
0.8,-0.99,-0.32538349741010214
0.81,-0.99,-0.2900871879313559
0.8200000000000001,-0.99,-0.2536460368500745
0.8300000000000001,-0.99,-0.21620386074119732
0.8400000000000001,-0.99,-0.17790842676812324
0.8500000000000001,-0.99,-0.13891086951322396
0.8600000000000001,-0.99,-0.09936509451869585
0.8700000000000001,-0.99,-0.059427170891696066
0.8800000000000001,-0.99,-0.019254715370878524
0.8900000000000001,-0.99,0.020993729714865208
0.9000000000000001,-0.99,0.06115932214054717
0.9100000000000001,-0.99,0.10108354666277683
0.9199999999999999,-0.99,0.14060884060700815
0.9299999999999999,-0.99,0.17957921569543245
0.94,-0.99,0.21784087366144683
0.95,-0.99,0.2552428132211478
0.96,-0.99,0.29163742600641407
0.97,-0.99,0.32688107910769937
0.98,-0.99,0.36083468192750656
0.99,-0.99,0.39336423510743135
1.0,-0.99,0.42434135936241146

-1.0,-0.98,0.4517453837024939
-0.99,-0.98,0.4811559200709299
-0.98,-0.98,0.5086675538420765
-0.97,-0.98,0.5341717091663091
-0.96,-0.98,0.5575677327943024
-0.95,-0.98,0.5787632913094237
-0.94,-0.98,0.5976747355255431
-0.9299999999999999,-0.98,0.6142274306121567
-0.92,-0.98,0.6283560506439644
-0.91,-0.98,0.640004836412454
-0.9,-0.98,0.6491278154820204
-0.89,-0.98,0.6556889836221695
-0.88,-0.98,0.6596624468997648
-0.87,-0.98,0.661032523870551
-0.86,-0.98,0.6597938074666543
-0.85,-0.98,0.6559511863358051
-0.84,-0.98,0.6495198255480794
-0.83,-0.98,0.6405251067462974
-0.8200000000000001,-0.98,0.6290025279762743
-0.81,-0.98,0.6149975635922494
-0.8,-0.98,0.5985654847903863
-0.79,-0.98,0.5797711414786144
-0.78,-0.98,0.5586887063436655
-0.77,-0.98,0.5354013821253694
-0.76,-0.98,0.5100010732534488
-0.75,-0.98,0.48258802314272453
-0.74,-0.98,0.4532704185781514
-0.73,-0.98,0.42216396275100754
-0.72,-0.98,0.3893914186312536
-0.71,-0.98,0.35508212447817994
-0.7,-0.98,0.31937148340138244
-0.69,-0.98,0.2824004289865517
-0.6799999999999999,-0.98,0.24431486909499495
-0.6699999999999999,-0.98,0.20526511003196668
-0.6599999999999999,-0.98,0.16540526335635064
-0.6499999999999999,-0.98,0.12489263767274417
-0.64,-0.98,0.08388711780626193
-0.63,-0.98,0.04255053381017712
-0.62,-0.98,0.0010460222966332568
-0.61,-0.98,-0.04046261738903327
-0.6,-0.98,-0.08181156960947664
-0.59,-0.98,-0.12283764894082234
-0.5800000000000001,-0.98,-0.16337894419098248
-0.5700000000000001,-0.98,-0.2032754573891603
-0.56,-0.98,-0.24236973522474606
-0.55,-0.98,-0.2805074904435987
-0.54,-0.98,-0.3175382107493532
-0.53,-0.98,-0.3533157528066895
-0.52,-0.98,-0.3876989190023109
-0.51,-0.98,-0.4205520146874181
-0.5,-0.98,-0.45174538370249384
-0.49,-0.98,-0.48115592007092967
-0.48,-0.98,-0.5086675538420768
-0.47,-0.98,-0.5341717091663094
-0.45999999999999996,-0.98,-0.5575677327943024
-0.44999999999999996,-0.98,-0.578763291309423
-0.43999999999999995,-0.98,-0.5976747355255425
-0.42999999999999994,-0.98,-0.6142274306121565
-0.42000000000000004,-0.98,-0.6283560506439646
-0.41000000000000003,-0.98,-0.6400048364124542
-0.4,-0.98,-0.6491278154820208
-0.39,-0.98,-0.6556889836221702
-0.38,-0.98,-0.6596624468997652
-0.37,-0.98,-0.6610325238705511
-0.36,-0.98,-0.659793807466655
-0.35,-0.98,-0.6559511863358047
-0.33999999999999997,-0.98,-0.6495198255480792
-0.32999999999999996,-0.98,-0.6405251067462979
-0.31999999999999995,-0.98,-0.6290025279762741
-0.30999999999999994,-0.98,-0.6149975635922491
-0.29999999999999993,-0.98,-0.5985654847903868
-0.29000000000000004,-0.98,-0.5797711414786146
-0.28,-0.98,-0.5586887063436655
-0.27,-0.98,-0.5354013821253691
-0.26,-0.98,-0.5100010732534489
-0.25,-0.98,-0.4825880231427244
-0.24,-0.98,-0.45327041857815165
-0.22999999999999998,-0.98,-0.4221639627510074
-0.21999999999999997,-0.98,-0.3893914186312537
-0.20999999999999996,-0.98,-0.3550821244781799
-0.19999999999999996,-0.98,-0.3193714834013826
-0.18999999999999995,-0.98,-0.28240042898655165
-0.17999999999999994,-0.98,-0.24431486909499484
-0.16999999999999993,-0.98,-0.20526511003196646
-0.16000000000000003,-0.98,-0.16540526335635075
-0.15000000000000002,-0.98,-0.12489263767274403
-0.14,-0.98,-0.08388711780626193
-0.13,-0.98,-0.04255053381017719
-0.12,-0.98,-0.0010460222966333123
-0.10999999999999999,-0.98,0.040462617389033215
-0.09999999999999998,-0.98,0.08181156960947675
-0.08999999999999997,-0.98,0.12283764894082251
-0.07999999999999996,-0.98,0.16337894419098267
-0.06999999999999995,-0.98,0.2032754573891603
-0.05999999999999994,-0.98,0.24236973522474584
-0.04999999999999993,-0.98,0.2805074904435989
-0.040000000000000036,-0.98,0.3175382107493533
-0.030000000000000027,-0.98,0.3533157528066896
-0.020000000000000018,-0.98,0.3876989190023106
-0.010000000000000009,-0.98,0.4205520146874184
0.0,-0.98,0.45174538370249384
0.010000000000000009,-0.98,0.4811559200709301
0.020000000000000018,-0.98,0.5086675538420767
0.030000000000000027,-0.98,0.534171709166309
0.040000000000000036,-0.98,0.5575677327943025
0.050000000000000044,-0.98,0.5787632913094236
0.06000000000000005,-0.98,0.597674735525543
0.07000000000000006,-0.98,0.6142274306121567
0.08000000000000007,-0.98,0.6283560506439647
0.09000000000000008,-0.98,0.6400048364124542
0.10000000000000009,-0.98,0.6491278154820208
0.1100000000000001,-0.98,0.65568898362217
0.1200000000000001,-0.98,0.6596624468997647
0.13000000000000012,-0.98,0.661032523870551
0.14000000000000012,-0.98,0.6597938074666547
0.15000000000000013,-0.98,0.6559511863358047
0.15999999999999992,-0.98,0.6495198255480789
0.16999999999999993,-0.98,0.640525106746298
0.17999999999999994,-0.98,0.6290025279762741
0.18999999999999995,-0.98,0.6149975635922492
0.19999999999999996,-0.98,0.5985654847903862
0.20999999999999996,-0.98,0.579771141478614
0.21999999999999997,-0.98,0.5586887063436656
0.22999999999999998,-0.98,0.5354013821253691
0.24,-0.98,0.5100010732534488
0.25,-0.98,0.48258802314272453
0.26,-0.98,0.45327041857815165
0.27,-0.98,0.4221639627510075
0.28,-0.98,0.3893914186312536
0.29000000000000004,-0.98,0.35508212447817994
0.30000000000000004,-0.98,0.31937148340138244
0.31000000000000005,-0.98,0.2824004289865517
0.32000000000000006,-0.98,0.24431486909499492
0.33000000000000007,-0.98,0.2052651100319669
0.3400000000000001,-0.98,0.16540526335635086
0.3500000000000001,-0.98,0.12489263767274421
0.3600000000000001,-0.98,0.08388711780626212
0.3700000000000001,-0.98,0.042550533810177316
0.3800000000000001,-0.98,0.0010460222966334233
0.3900000000000001,-0.98,-0.040462617389033145
0.40000000000000013,-0.98,-0.08181156960947664
0.4099999999999999,-0.98,-0.12283764894082233
0.41999999999999993,-0.98,-0.16337894419098226
0.42999999999999994,-0.98,-0.20327545738916017
0.43999999999999995,-0.98,-0.24236973522474595
0.44999999999999996,-0.98,-0.28050749044359885
0.45999999999999996,-0.98,-0.31753821074935307
0.47,-0.98,-0.35331575280668914
0.48,-0.98,-0.3876989190023108
0.49,-0.98,-0.42055201468741843
0.5,-0.98,-0.4517453837024935
0.51,-0.98,-0.4811559200709302
0.52,-0.98,-0.5086675538420766
0.53,-0.98,-0.5341717091663087
0.54,-0.98,-0.5575677327943023
0.55,-0.98,-0.5787632913094232
0.56,-0.98,-0.5976747355255428
0.5700000000000001,-0.98,-0.6142274306121565
0.5800000000000001,-0.98,-0.6283560506439645
0.5900000000000001,-0.98,-0.640004836412454
0.6000000000000001,-0.98,-0.6491278154820208
0.6100000000000001,-0.98,-0.6556889836221703
0.6200000000000001,-0.98,-0.6596624468997647
0.6300000000000001,-0.98,-0.6610325238705509
0.6400000000000001,-0.98,-0.6597938074666541
0.6500000000000001,-0.98,-0.6559511863358046
0.6600000000000001,-0.98,-0.6495198255480791
0.6699999999999999,-0.98,-0.6405251067462974
0.6799999999999999,-0.98,-0.6290025279762743
0.69,-0.98,-0.6149975635922489
0.7,-0.98,-0.5985654847903866
0.71,-0.98,-0.579771141478614
0.72,-0.98,-0.5586887063436655
0.73,-0.98,-0.5354013821253694
0.74,-0.98,-0.5100010732534495
0.75,-0.98,-0.4825880231427243
0.76,-0.98,-0.45327041857815165
0.77,-0.98,-0.42216396275100737
0.78,-0.98,-0.3893914186312537
0.79,-0.98,-0.35508212447818
0.8,-0.98,-0.31937148340138255
0.81,-0.98,-0.28240042898655177
0.8200000000000001,-0.98,-0.24431486909499497
0.8300000000000001,-0.98,-0.2052651100319668
0.8400000000000001,-0.98,-0.1654052633563507
0.8500000000000001,-0.98,-0.1248926376727442
0.8600000000000001,-0.98,-0.08388711780626211
0.8700000000000001,-0.98,-0.04255053381017725
0.8800000000000001,-0.98,-0.0010460222966333817
0.8900000000000001,-0.98,0.04046261738903319
0.9000000000000001,-0.98,0.08181156960947668
0.9100000000000001,-0.98,0.1228376489408224
0.9199999999999999,-0.98,0.1633789441909823
0.9299999999999999,-0.98,0.20327545738916036
0.94,-0.98,0.24236973522474597
0.95,-0.98,0.28050749044359885
0.96,-0.98,0.3175382107493533
0.97,-0.98,0.3533157528066894
0.98,-0.98,0.387698919002311
0.99,-0.98,0.42055201468741815
1.0,-0.98,0.4517453837024939

-1.0,-0.97,0.47736657539593663
-0.99,-0.97,0.5067691354094557
-0.98,-0.97,0.5341717091663091
-0.97,-0.97,0.5594661512269234
-0.96,-0.97,0.582552635984417
-0.95,-0.97,0.6033400516306633
-0.94,-0.97,0.6217463597329739
-0.9299999999999999,-0.97,0.6376989190023106
-0.92,-0.97,0.6511347719752691
-0.91,-0.97,0.6620008934784223
-0.9,-0.97,0.6702543998944559
-0.89,-0.97,0.675862718404215
-0.88,-0.97,0.6788037155367368
-0.87,-0.97,0.6790657845199545
-0.86,-0.97,0.676647891087319
-0.85,-0.97,0.671559577559578
-0.84,-0.97,0.663820925185596
-0.83,-0.97,0.6534624748908403
-0.8200000000000001,-0.97,0.6405251067462978
-0.81,-0.97,0.6250598786335131
-0.8,-0.97,0.6071278247424579
-0.79,-0.97,0.5867997146974632
-0.78,-0.97,0.5641557742618468
-0.77,-0.97,0.5392853687234755
-0.76,-0.97,0.5122866502108022
-0.75,-0.97,0.48326617033125474
-0.74,-0.97,0.4523384596607223
-0.73,-0.97,0.4196255757436935
-0.72,-0.97,0.3852566213878946
-0.71,-0.97,0.3493672351544857
-0.7,-0.97,0.31209905605462945
-0.69,-0.97,0.2735991645650216
-0.6799999999999999,-0.97,0.23401950216844408
-0.6699999999999999,-0.97,0.19351627171014826
-0.6599999999999999,-0.97,0.15224932093658766
-0.6499999999999999,-0.97,0.11038151164938864
-0.64,-0.97,0.06807807696422544
-0.63,-0.97,0.02550596921119928
-0.62,-0.97,-0.017166798949734545
-0.61,-0.97,-0.05977181759797805
-0.6,-0.97,-0.10214094418930836
-0.59,-0.97,-0.14410696713768228
-0.5800000000000001,-0.97,-0.18550426572297457
-0.5700000000000001,-0.97,-0.22616946372029592
-0.56,-0.97,-0.2659420741713123
-0.55,-0.97,-0.30466513275295143
-0.54,-0.97,-0.3421858172438742
-0.53,-0.97,-0.37835605064396477
-0.52,-0.97,-0.413033085566601
-0.51,-0.97,-0.4460800675973735
-0.5,-0.97,-0.4773665753959364
-0.49,-0.97,-0.5067691354094558
-0.48,-0.97,-0.5341717091663094
-0.47,-0.97,-0.5594661512269234
-0.45999999999999996,-0.97,-0.5825526359844161
-0.44999999999999996,-0.97,-0.6033400516306628
-0.43999999999999995,-0.97,-0.6217463597329738
-0.42999999999999994,-0.97,-0.6376989190023107
-0.42000000000000004,-0.97,-0.6511347719752693
-0.41000000000000003,-0.97,-0.6620008934784225
-0.4,-0.97,-0.6702543998944566
-0.39,-0.97,-0.6758627184042154
-0.38,-0.97,-0.6788037155367368
-0.37,-0.97,-0.679065784519955
-0.36,-0.97,-0.6766478910873186
-0.35,-0.97,-0.6715595775595777
-0.33999999999999997,-0.97,-0.6638209251855967
-0.32999999999999996,-0.97,-0.6534624748908402
-0.31999999999999995,-0.97,-0.6405251067462976
-0.30999999999999994,-0.97,-0.6250598786335136
-0.29999999999999993,-0.97,-0.6071278247424581
-0.29000000000000004,-0.97,-0.5867997146974632
-0.28,-0.97,-0.5641557742618466
-0.27,-0.97,-0.5392853687234757
-0.26,-0.97,-0.5122866502108022
-0.25,-0.97,-0.48326617033125496
-0.24,-0.97,-0.4523384596607221
-0.22999999999999998,-0.97,-0.4196255757436936
-0.21999999999999997,-0.97,-0.38525662138789457
-0.20999999999999996,-0.97,-0.34936723515448587
-0.19999999999999996,-0.97,-0.3120990560546294
-0.18999999999999995,-0.97,-0.27359916456502154
-0.17999999999999994,-0.97,-0.23401950216844386
-0.16999999999999993,-0.97,-0.19351627171014835
-0.16000000000000003,-0.97,-0.1522493209365875
-0.15000000000000002,-0.97,-0.11038151164938867
-0.14,-0.97,-0.06807807696422553
-0.13,-0.97,-0.025505969211199336
-0.12,-0.97,0.017166798949734503
-0.10999999999999999,-0.97,0.05977181759797816
-0.09999999999999998,-0.97,0.10214094418930852
-0.08999999999999997,-0.97,0.14410696713768253
-0.07999999999999996,-0.97,0.1855042657229746
-0.06999999999999995,-0.97,0.22616946372029578
-0.05999999999999994,-0.97,0.2659420741713125
-0.04999999999999993,-0.97,0.3046651327529515
-0.040000000000000036,-0.97,0.34218581724387437
-0.030000000000000027,-0.97,0.37835605064396455
-0.020000000000000018,-0.97,0.4130330855666013
-0.010000000000000009,-0.97,0.44608006759737345
0.0,-0.97,0.47736657539593674
0.010000000000000009,-0.97,0.5067691354094558
0.020000000000000018,-0.97,0.5341717091663091
0.030000000000000027,-0.97,0.5594661512269234
0.040000000000000036,-0.97,0.582552635984417
0.050000000000000044,-0.97,0.6033400516306633
0.06000000000000005,-0.97,0.6217463597329738
0.07000000000000006,-0.97,0.6376989190023108
0.08000000000000007,-0.97,0.6511347719752691
0.09000000000000008,-0.97,0.6620008934784225
0.10000000000000009,-0.97,0.6702543998944563
0.1100000000000001,-0.97,0.675862718404215
0.1200000000000001,-0.97,0.6788037155367368
0.13000000000000012,-0.97,0.679065784519955
0.14000000000000012,-0.97,0.6766478910873188
0.15000000000000013,-0.97,0.6715595775595775
0.15999999999999992,-0.97,0.6638209251855967
0.16999999999999993,-0.97,0.6534624748908402
0.17999999999999994,-0.97,0.6405251067462975
0.18999999999999995,-0.97,0.625059878633513
0.19999999999999996,-0.97,0.6071278247424575
0.20999999999999996,-0.97,0.5867997146974633
0.21999999999999997,-0.97,0.5641557742618465
0.22999999999999998,-0.97,0.5392853687234754
0.24,-0.97,0.5122866502108023
0.25,-0.97,0.4832661703312549
0.26,-0.97,0.4523384596607223
0.27,-0.97,0.4196255757436934
0.28,-0.97,0.3852566213878946
0.29000000000000004,-0.97,0.34936723515448576
0.30000000000000004,-0.97,0.31209905605462945
0.31000000000000005,-0.97,0.27359916456502165
0.32000000000000006,-0.97,0.23401950216844428
0.33000000000000007,-0.97,0.19351627171014846
0.3400000000000001,-0.97,0.1522493209365877
0.3500000000000001,-0.97,0.11038151164938886
0.3600000000000001,-0.97,0.06807807696422566
0.3700000000000001,-0.97,0.025505969211199457
0.3800000000000001,-0.97,-0.017166798949734403
0.3900000000000001,-0.97,-0.05977181759797804
0.40000000000000013,-0.97,-0.10214094418930834
0.4099999999999999,-0.97,-0.1441069671376821
0.41999999999999993,-0.97,-0.18550426572297446
0.42999999999999994,-0.97,-0.2261694637202958
0.43999999999999995,-0.97,-0.26594207417131244
0.44999999999999996,-0.97,-0.30466513275295143
0.45999999999999996,-0.97,-0.342185817243874
0.47,-0.97,-0.37835605064396466
0.48,-0.97,-0.41303308556660123
0.49,-0.97,-0.44608006759737323
0.5,-0.97,-0.47736657539593685
0.51,-0.97,-0.5067691354094557
0.52,-0.97,-0.5341717091663089
0.53,-0.97,-0.559466151226923
0.54,-0.97,-0.5825526359844164
0.55,-0.97,-0.6033400516306632
0.56,-0.97,-0.6217463597329738
0.5700000000000001,-0.97,-0.6376989190023106
0.5800000000000001,-0.97,-0.6511347719752691
0.5900000000000001,-0.97,-0.6620008934784225
0.6000000000000001,-0.97,-0.6702543998944567
0.6100000000000001,-0.97,-0.6758627184042147
0.6200000000000001,-0.97,-0.6788037155367366
0.6300000000000001,-0.97,-0.6790657845199543
0.6400000000000001,-0.97,-0.6766478910873186
0.6500000000000001,-0.97,-0.6715595775595776
0.6600000000000001,-0.97,-0.6638209251855959