TITLE = "Solution" 
VARIABLES = "x", "y", "sol" 
ZONE STRANDID=1, SOLUTIONTIME= 0.9500000000000007, I= 201, J =201, DATAPACKING=POINT 
-1.0,-1.0,-0.06096418636067526
-0.99,-1.0,-0.04239021678327969
-0.98,-1.0,-0.023648952386488425
-0.97,-1.0,-0.004814356378806343
-0.96,-1.0,0.014039239694032722
-0.95,-1.0,0.03283742930171794
-0.94,-1.0,0.05150602457794363
-0.9299999999999999,-1.0,0.0699713491060246
-0.92,-1.0,0.0881605286860528
-0.91,-1.0,0.10600177893607135
-0.9,-1.0,0.12342468859223565
-0.89,-1.0,0.14036049738990297
-0.88,-1.0,0.15674236742898395
-0.87,-1.0,0.1725056469525988
-0.86,-1.0,0.18758812549802523
-0.85,-1.0,0.20193027941297392
-0.84,-1.0,0.2154755067682485
-0.83,-1.0,0.22817035073970407
-0.8200000000000001,-1.0,0.23996471057790786
-0.81,-1.0,0.2508120393329086
-0.8,-1.0,0.2606695275537838
-0.79,-1.0,0.2694982722379835
-0.78,-1.0,0.27726343036370876
-0.77,-1.0,0.2839343563994011
-0.76,-1.0,0.28948472324765306
-0.75,-1.0,0.2938926261462368
-0.74,-1.0,0.2971406691161905
-0.73,-1.0,0.2992160336158015
-0.72,-1.0,0.30011052912953373
-0.71,-1.0,0.2998206254922505
-0.7,-1.0,0.29834746682116386
-0.69,-1.0,0.2956968670005265
-0.6799999999999999,-1.0,0.29187928673688657
-0.6699999999999999,-1.0,0.2869097922754581
-0.6599999999999999,-1.0,0.2808079959405342
-0.6499999999999999,-1.0,0.2735979787346034
-0.64,-1.0,0.26530819530163385
-0.63,-1.0,0.25597136162959383
-0.62,-1.0,0.2456243259353929
-0.61,-1.0,0.23430792324180574
-0.6,-1.0,0.22206681422029098
-0.59,-1.0,0.20894930893572572
-0.5800000000000001,-1.0,0.19500717618865027
-0.5700000000000001,-1.0,0.18029543920746238
-0.56,-1.0,0.16487215849687384
-0.55,-1.0,0.14879820269962254
-0.54,-1.0,0.13213700837574843
-0.53,-1.0,0.11495432964747195
-0.52,-1.0,0.09731797869771466
-0.51,-1.0,0.07929755814639271
-0.5,-1.0,0.0609641863606753
-0.49,-1.0,0.04239021678327976
-0.48,-1.0,0.023648952386488453
-0.47,-1.0,0.004814356378806377
-0.45999999999999996,-1.0,-0.01403923969403269
-0.44999999999999996,-1.0,-0.03283742930171786
-0.43999999999999995,-1.0,-0.05150602457794365
-0.42999999999999994,-1.0,-0.06997134910602454
-0.42000000000000004,-1.0,-0.0881605286860527
-0.41000000000000003,-1.0,-0.1060017789360714
-0.4,-1.0,-0.12342468859223572
-0.39,-1.0,-0.14036049738990297
-0.38,-1.0,-0.1567423674289839
-0.37,-1.0,-0.17250564695259885
-0.36,-1.0,-0.18758812549802534
-0.35,-1.0,-0.20193027941297376
-0.33999999999999997,-1.0,-0.21547550676824845
-0.32999999999999996,-1.0,-0.22817035073970432
-0.31999999999999995,-1.0,-0.23996471057790777
-0.30999999999999994,-1.0,-0.25081203933290885
-0.29999999999999993,-1.0,-0.2606695275537839
-0.29000000000000004,-1.0,-0.26949827223798356
-0.28,-1.0,-0.27726343036370865
-0.27,-1.0,-0.283934356399401
-0.26,-1.0,-0.2894847232476532
-0.25,-1.0,-0.2938926261462368
-0.24,-1.0,-0.2971406691161905
-0.22999999999999998,-1.0,-0.29921603361580157
-0.21999999999999997,-1.0,-0.3001105291295338
-0.20999999999999996,-1.0,-0.2998206254922506
-0.19999999999999996,-1.0,-0.29834746682116403
-0.18999999999999995,-1.0,-0.2956968670005264
-0.17999999999999994,-1.0,-0.2918792867368866
-0.16999999999999993,-1.0,-0.28690979227545793
-0.16000000000000003,-1.0,-0.2808079959405344
-0.15000000000000002,-1.0,-0.27359797873460323
-0.14,-1.0,-0.26530819530163374
-0.13,-1.0,-0.25597136162959355
-0.12,-1.0,-0.24562432593539296
-0.10999999999999999,-1.0,-0.2343079232418056
-0.09999999999999998,-1.0,-0.22206681422029106
-0.08999999999999997,-1.0,-0.20894930893572572
-0.07999999999999996,-1.0,-0.19500717618865024
-0.06999999999999995,-1.0,-0.18029543920746244
-0.05999999999999994,-1.0,-0.1648721584968738
-0.04999999999999993,-1.0,-0.14879820269962252
-0.040000000000000036,-1.0,-0.13213700837574832
-0.030000000000000027,-1.0,-0.1149543296474719
-0.020000000000000018,-1.0,-0.09731797869771452
-0.010000000000000009,-1.0,-0.07929755814639264
0.0,-1.0,-0.06096418636067528
0.010000000000000009,-1.0,-0.042390216783279706
0.020000000000000018,-1.0,-0.023648952386488425
0.030000000000000027,-1.0,-0.004814356378806367
0.040000000000000036,-1.0,0.014039239694032698
0.050000000000000044,-1.0,0.03283742930171786
0.06000000000000005,-1.0,0.05150602457794362
0.07000000000000006,-1.0,0.06997134910602464
0.08000000000000007,-1.0,0.08816052868605274
0.09000000000000008,-1.0,0.10600177893607138
0.10000000000000009,-1.0,0.12342468859223563
0.1100000000000001,-1.0,0.14036049738990294
0.1200000000000001,-1.0,0.1567423674289839
0.13000000000000012,-1.0,0.17250564695259873
0.14000000000000012,-1.0,0.18758812549802528
0.15000000000000013,-1.0,0.20193027941297373
0.15999999999999992,-1.0,0.2154755067682485
0.16999999999999993,-1.0,0.22817035073970418
0.17999999999999994,-1.0,0.239964710577908
0.18999999999999995,-1.0,0.25081203933290885
0.19999999999999996,-1.0,0.2606695275537837
0.20999999999999996,-1.0,0.26949827223798356
0.21999999999999997,-1.0,0.27726343036370876
0.22999999999999998,-1.0,0.2839343563994009
0.24,-1.0,0.28948472324765306
0.25,-1.0,0.2938926261462367
0.26,-1.0,0.2971406691161904
0.27,-1.0,0.2992160336158013
0.28,-1.0,0.3001105291295336
0.29000000000000004,-1.0,0.2998206254922504
0.30000000000000004,-1.0,0.298347466821164
0.31000000000000005,-1.0,0.29569686700052655
0.32000000000000006,-1.0,0.2918792867368867
0.33000000000000007,-1.0,0.286909792275458
0.3400000000000001,-1.0,0.28080799594053435
0.3500000000000001,-1.0,0.27359797873460345
0.3600000000000001,-1.0,0.26530819530163363
0.3700000000000001,-1.0,0.2559713616295936
0.3800000000000001,-1.0,0.24562432593539302
0.3900000000000001,-1.0,0.23430792324180577
0.40000000000000013,-1.0,0.2220668142202909
0.4099999999999999,-1.0,0.20894930893572572
0.41999999999999993,-1.0,0.19500717618865007
0.42999999999999994,-1.0,0.18029543920746233
0.43999999999999995,-1.0,0.16487215849687376
0.44999999999999996,-1.0,0.1487982026996224
0.45999999999999996,-1.0,0.13213700837574832
0.47,-1.0,0.11495432964747193
0.48,-1.0,0.09731797869771454
0.49,-1.0,0.07929755814639265
0.5,-1.0,0.060964186360675236
0.51,-1.0,0.042390216783279686
0.52,-1.0,0.02364895238648841
0.53,-1.0,0.004814356378806284
0.54,-1.0,-0.014039239694032687
0.55,-1.0,-0.032837429301717916
0.56,-1.0,-0.05150602457794367
0.5700000000000001,-1.0,-0.0699713491060246
0.5800000000000001,-1.0,-0.08816052868605272
0.5900000000000001,-1.0,-0.10600177893607138
0.6000000000000001,-1.0,-0.12342468859223568
0.6100000000000001,-1.0,-0.14036049738990272
0.6200000000000001,-1.0,-0.15674236742898384
0.6300000000000001,-1.0,-0.1725056469525988
0.6400000000000001,-1.0,-0.18758812549802534
0.6500000000000001,-1.0,-0.20193027941297373
0.6600000000000001,-1.0,-0.21547550676824853
0.6699999999999999,-1.0,-0.2281703507397042
0.6799999999999999,-1.0,-0.23996471057790786
0.69,-1.0,-0.2508120393329089
0.7,-1.0,-0.2606695275537839
0.71,-1.0,-0.26949827223798356
0.72,-1.0,-0.2772634303637088
0.73,-1.0,-0.283934356399401
0.74,-1.0,-0.28948472324765306
0.75,-1.0,-0.2938926261462368
0.76,-1.0,-0.2971406691161904
0.77,-1.0,-0.2992160336158016
0.78,-1.0,-0.30011052912953373
0.79,-1.0,-0.2998206254922505
0.8,-1.0,-0.29834746682116403
0.81,-1.0,-0.2956968670005266
0.8200000000000001,-1.0,-0.2918792867368866
0.8300000000000001,-1.0,-0.286909792275458
0.8400000000000001,-1.0,-0.2808079959405343
0.8500000000000001,-1.0,-0.2735979787346035
0.8600000000000001,-1.0,-0.2653081953016339
0.8700000000000001,-1.0,-0.2559713616295938
0.8800000000000001,-1.0,-0.24562432593539296
0.8900000000000001,-1.0,-0.2343079232418058
0.9000000000000001,-1.0,-0.2220668142202909
0.9100000000000001,-1.0,-0.20894930893572566
0.9199999999999999,-1.0,-0.19500717618865013
0.9299999999999999,-1.0,-0.18029543920746238
0.94,-1.0,-0.1648721584968738
0.95,-1.0,-0.14879820269962246
0.96,-1.0,-0.13213700837574827
0.97,-1.0,-0.11495432964747188
0.98,-1.0,-0.09731797869771451
0.99,-1.0,-0.07929755814639264
1.0,-1.0,-0.06096418636067526

-1.0,-0.99,-0.04239021678327967
-0.99,-0.99,-0.020940002883907245
-0.98,-0.99,0.0005928516402706179
-0.97,-0.99,0.02212336644987255
-0.96,-0.99,0.04356657043930151
-0.95,-0.99,0.06483783707887927
-0.94,-0.99,0.08585321839709685
-0.9299999999999999,-0.99,0.10652977628490576
-0.92,-0.99,0.12678590981454327
-0.91,-0.99,0.14654167728111536
-0.9,-0.99,0.16571911169598302
-0.89,-0.99,0.18424252848684713
-0.88,-0.99,0.2020388241901782
-0.87,-0.99,0.21903776495718943
-0.86,-0.99,0.2351722637347512
-0.85,-0.99,0.25037864502733875
-0.84,-0.99,0.2645968961951258
-0.83,-0.99,0.2777709042964541
-0.8200000000000001,-0.99,0.2898486775399793
-0.81,-0.99,0.3007825504725191
-0.8,-0.99,0.3105293720928203
-0.79,-0.99,0.3190506761488464
-0.78,-0.99,0.3263128329465023
-0.77,-0.99,0.33228718207067076
-0.76,-0.99,0.33695014549477986
-0.75,-0.99,0.34028332063249966
-0.74,-0.99,0.3422735529643446
-0.73,-0.99,0.3429129879525515
-0.72,-0.99,0.3421991020393517
-0.71,-0.99,0.34013471260630157
-0.7,-0.99,0.3367279668553634
-0.69,-0.99,0.33199230965562193
-0.6799999999999999,-0.99,0.32594643048252875
-0.6699999999999999,-0.99,0.31861418965908045
-0.6599999999999999,-0.99,0.31002452419002513
-0.6499999999999999,-0.99,0.3002113335607241
-0.64,-0.99,0.28921334595137105
-0.63,-0.99,0.27707396539455714
-0.62,-0.99,0.26384110047938514
-0.61,-0.99,0.24956697527815414
-0.6,-0.99,0.23430792324180574
-0.59,-0.99,0.21812416487753
-0.5800000000000001,-0.99,0.20107957008593427
-0.5700000000000001,-0.99,0.1832414060957268
-0.56,-0.99,0.1646800719906948
-0.55,-0.99,0.14546882087668409
-0.54,-0.99,0.1256834707850555
-0.53,-0.99,0.1054021054535545
-0.52,-0.99,0.0847047661654697
-0.51,-0.99,0.06367313586325647
-0.5,-0.99,0.04239021678327977
-0.49,-0.99,0.020940002883907287
-0.48,-0.99,-0.000592851640270578
-0.47,-0.99,-0.022123366449872506
-0.45999999999999996,-0.99,-0.043566570439301434
-0.44999999999999996,-0.99,-0.06483783707887927
-0.43999999999999995,-0.99,-0.08585321839709681
-0.42999999999999994,-0.99,-0.10652977628490562
-0.42000000000000004,-0.99,-0.1267859098145433
-0.41000000000000003,-0.99,-0.14654167728111542
-0.4,-0.99,-0.16571911169598308
-0.39,-0.99,-0.18424252848684705
-0.38,-0.99,-0.20203882419017827
-0.37,-0.99,-0.21903776495718952
-0.36,-0.99,-0.23517226373475103
-0.35,-0.99,-0.2503786450273387
-0.33999999999999997,-0.99,-0.26459689619512605
-0.32999999999999996,-0.99,-0.27777090429645407
-0.31999999999999995,-0.99,-0.28984867753997956
-0.30999999999999994,-0.99,-0.30078255047251934
-0.29999999999999993,-0.99,-0.3105293720928204
-0.29000000000000004,-0.99,-0.3190506761488464
-0.28,-0.99,-0.32631283294650226
-0.27,-0.99,-0.3322871820706709
-0.26,-0.99,-0.33695014549477975
-0.25,-0.99,-0.34028332063249966
-0.24,-0.99,-0.3422735529643446
-0.22999999999999998,-0.99,-0.34291298795255154
-0.21999999999999997,-0.99,-0.34219910203935183
-0.20999999999999996,-0.99,-0.34013471260630174
-0.19999999999999996,-0.99,-0.33672796685536327
-0.18999999999999995,-0.99,-0.331992309655622
-0.17999999999999994,-0.99,-0.3259464304825286
-0.16999999999999993,-0.99,-0.3186141896590806
-0.16000000000000003,-0.99,-0.310024524190025
-0.15000000000000002,-0.99,-0.300211333560724
-0.14,-0.99,-0.28921334595137077
-0.13,-0.99,-0.2770739653945572
-0.12,-0.99,-0.2638411004793849
-0.10999999999999999,-0.99,-0.24956697527815425
-0.09999999999999998,-0.99,-0.23430792324180574
-0.08999999999999997,-0.99,-0.21812416487752995
-0.07999999999999996,-0.99,-0.2010795700859343
-0.06999999999999995,-0.99,-0.18324140609572676
-0.05999999999999994,-0.99,-0.16468007199069473
-0.04999999999999993,-0.99,-0.14546882087668395
-0.040000000000000036,-0.99,-0.1256834707850555
-0.030000000000000027,-0.99,-0.10540210545355433
-0.020000000000000018,-0.99,-0.0847047661654696
-0.010000000000000009,-0.99,-0.06367313586325646
0.0,-0.99,-0.04239021678327972
0.010000000000000009,-0.99,-0.02094000288390726
0.020000000000000018,-0.99,0.0005928516402705971
0.030000000000000027,-0.99,0.022123366449872513
0.040000000000000036,-0.99,0.04356657043930145
0.050000000000000044,-0.99,0.06483783707887925
0.06000000000000005,-0.99,0.0858532183970969
0.07000000000000006,-0.99,0.10652977628490568
0.08000000000000007,-0.99,0.12678590981454327
0.09000000000000008,-0.99,0.14654167728111533
0.10000000000000009,-0.99,0.16571911169598297
0.1100000000000001,-0.99,0.18424252848684708
0.1200000000000001,-0.99,0.20203882419017816
0.13000000000000012,-0.99,0.21903776495718946
0.14000000000000012,-0.99,0.23517226373475097
0.15000000000000013,-0.99,0.2503786450273387
0.15999999999999992,-0.99,0.2645968961951259
0.16999999999999993,-0.99,0.27777090429645424
0.17999999999999994,-0.99,0.28984867753997956
0.18999999999999995,-0.99,0.3007825504725191
0.19999999999999996,-0.99,0.31052937209282044
0.20999999999999996,-0.99,0.3190506761488464
0.21999999999999997,-0.99,0.32631283294650215
0.22999999999999998,-0.99,0.33228718207067076
0.24,-0.99,0.3369501454947797
0.25,-0.99,0.34028332063249955
0.26,-0.99,0.3422735529643444
0.27,-0.99,0.3429129879525513
0.28,-0.99,0.3421991020393517
0.29000000000000004,-0.99,0.3401347126063017
0.30000000000000004,-0.99,0.33672796685536344
0.31000000000000005,-0.99,0.3319923096556221
0.32000000000000006,-0.99,0.3259464304825287
0.33000000000000007,-0.99,0.3186141896590806
0.3400000000000001,-0.99,0.31002452419002513
0.3500000000000001,-0.99,0.3002113335607238
0.3600000000000001,-0.99,0.2892133459513708
0.3700000000000001,-0.99,0.2770739653945572
0.3800000000000001,-0.99,0.26384110047938514
0.3900000000000001,-0.99,0.24956697527815402
0.40000000000000013,-0.99,0.23430792324180577
0.4099999999999999,-0.99,0.21812416487752975
0.41999999999999993,-0.99,0.2010795700859342
0.42999999999999994,-0.99,0.18324140609572667
0.43999999999999995,-0.99,0.1646800719906947
0.44999999999999996,-0.99,0.14546882087668397
0.45999999999999996,-0.99,0.12568347078505554
0.47,-0.99,0.10540210545355437
0.48,-0.99,0.08470476616546962
0.49,-0.99,0.06367313586325642
0.5,-0.99,0.042390216783279686
0.51,-0.99,0.02094000288390724
0.52,-0.99,-0.0005928516402706821
0.53,-0.99,-0.022123366449872513
0.54,-0.99,-0.04356657043930151
0.55,-0.99,-0.06483783707887933
0.56,-0.99,-0.08585321839709686
0.5700000000000001,-0.99,-0.10652977628490563
0.5800000000000001,-0.99,-0.1267859098145433
0.5900000000000001,-0.99,-0.1465416772811154
0.6000000000000001,-0.99,-0.16571911169598277
0.6100000000000001,-0.99,-0.184242528486847
0.6200000000000001,-0.99,-0.20203882419017816
0.6300000000000001,-0.99,-0.21903776495718952
0.6400000000000001,-0.99,-0.23517226373475092
0.6500000000000001,-0.99,-0.2503786450273388
0.6600000000000001,-0.99,-0.26459689619512594
0.6699999999999999,-0.99,-0.2777709042964541
0.6799999999999999,-0.99,-0.2898486775399796
0.69,-0.99,-0.30078255047251934
0.7,-0.99,-0.3105293720928204
0.71,-0.99,-0.31905067614884647
0.72,-0.99,-0.32631283294650226
0.73,-0.99,-0.3322871820706707
0.74,-0.99,-0.33695014549477986
0.75,-0.99,-0.34028332063249955
0.76,-0.99,-0.3422735529643447
0.77,-0.99,-0.34291298795255143
0.78,-0.99,-0.3421991020393518
0.79,-0.99,-0.3401347126063017
0.8,-0.99,-0.3367279668553635
0.81,-0.99,-0.331992309655622
0.8200000000000001,-0.99,-0.3259464304825287
0.8300000000000001,-0.99,-0.31861418965908056
0.8400000000000001,-0.99,-0.31002452419002524
0.8500000000000001,-0.99,-0.3002113335607241
0.8600000000000001,-0.99,-0.28921334595137094
0.8700000000000001,-0.99,-0.27707396539455725
0.8800000000000001,-0.99,-0.2638411004793852
0.8900000000000001,-0.99,-0.24956697527815408
0.9000000000000001,-0.99,-0.2343079232418057
0.9100000000000001,-0.99,-0.21812416487752978
0.9199999999999999,-0.99,-0.20107957008593424
0.9299999999999999,-0.99,-0.18324140609572673
0.94,-0.99,-0.16468007199069468
0.95,-0.99,-0.1454688208766839
0.96,-0.99,-0.12568347078505546
0.97,-0.99,-0.10540210545355434
0.98,-0.99,-0.08470476616546961
0.99,-0.99,-0.06367313586325642
1.0,-0.99,-0.04239021678327967

-1.0,-0.98,-0.02364895238648841
-0.99,-0.98,0.0005928516402706144
-0.98,-0.98,0.024832315952453724
-0.97,-0.98,0.04897377845837847
-0.96,-0.98,0.07292196383471908
-0.95,-0.98,0.09658235953468045
-0.94,-0.98,0.11986158878584141
-0.9299999999999999,-0.98,0.14266777910561554
-0.92,-0.98,0.16491092487996828
-0.91,-0.98,0.18650324257445494
-0.9,-0.98,0.20735951717572682
-0.89,-0.98,0.2273974384962583
-0.88,-0.98,0.2465379260150526
-0.87,-0.98,0.26470544097233056
-0.86,-0.98,0.281828284486503
-0.85,-0.98,0.297838880516903
-0.84,-0.98,0.3126740425555443
-0.83,-0.98,0.326275222995401
-0.8200000000000001,-0.98,0.3385887441910654
-0.81,-0.98,0.34956601029989093
-0.8,-0.98,0.35916369906758183
-0.79,-0.98,0.36734393280133915
-0.78,-0.98,0.37407442785580847
-0.77,-0.98,0.3793286220418811
-0.76,-0.98,0.3830857794555174
-0.75,-0.98,0.38533107231288766
-0.74,-0.98,0.3860556394688607
-0.73,-0.98,0.38525662138789474
-0.72,-0.98,0.38293717142931927
-0.71,-0.98,0.3791064434024647
-0.7,-0.98,0.3737795554407596
-0.69,-0.98,0.3669775303373655
-0.6799999999999999,-0.98,0.35872721257781587
-0.6699999999999999,-0.98,0.34906116239709584
-0.6599999999999999,-0.98,0.33801752727927026
-0.6499999999999999,-0.98,0.32563989140679284
-0.64,-0.98,0.31197710365364734
-0.63,-0.98,0.2970830848011623
-0.62,-0.98,0.28101661473731837
-0.61,-0.98,0.26384110047938514
-0.6,-0.98,0.24562432593539313
-0.59,-0.98,0.22643818439201427
-0.5800000000000001,-0.98,0.20635839478460646
-0.5700000000000001,-0.98,0.18546420286916665
-0.56,-0.98,0.16383806847553703
-0.55,-0.98,0.14156534007612775
-0.54,-0.98,0.11873391795449013
-0.53,-0.98,0.09543390730305329
-0.52,-0.98,0.07175726261909632
-0.51,-0.98,0.04779742480235672
-0.5,-0.98,0.023648952386488474
-0.49,-0.98,-0.0005928516402705693
-0.48,-0.98,-0.024832315952453672
-0.47,-0.98,-0.048973778458378386
-0.45999999999999996,-0.98,-0.07292196383471908
-0.44999999999999996,-0.98,-0.09658235953468039
-0.43999999999999995,-0.98,-0.11986158878584123
-0.42999999999999994,-0.98,-0.14266777910561554
-0.42000000000000004,-0.98,-0.16491092487996833
-0.41000000000000003,-0.98,-0.18650324257445494
-0.4,-0.98,-0.20735951717572673
-0.39,-0.98,-0.2273974384962583
-0.38,-0.98,-0.2465379260150527
-0.37,-0.98,-0.2647054409723304
-0.36,-0.98,-0.2818282844865028
-0.35,-0.98,-0.2978388805169033
-0.33999999999999997,-0.98,-0.3126740425555443
-0.32999999999999996,-0.98,-0.32627522299540124
-0.31999999999999995,-0.98,-0.33858874419106566
-0.30999999999999994,-0.98,-0.3495660102998911
-0.29999999999999993,-0.98,-0.35916369906758183
-0.29000000000000004,-0.98,-0.36734393280133915
-0.28,-0.98,-0.3740744278558086
-0.27,-0.98,-0.37932862204188106
-0.26,-0.98,-0.3830857794555174
-0.25,-0.98,-0.38533107231288766
-0.24,-0.98,-0.3860556394688609
-0.22999999999999998,-0.98,-0.38525662138789485
-0.21999999999999997,-0.98,-0.3829371714293195
-0.20999999999999996,-0.98,-0.37910644340246447
-0.19999999999999996,-0.98,-0.3737795554407597
-0.18999999999999995,-0.98,-0.36697753033736535
-0.17999999999999994,-0.98,-0.35872721257781603
-0.16999999999999993,-0.98,-0.3490611623970957
-0.16000000000000003,-0.98,-0.33801752727927026
-0.15000000000000002,-0.98,-0.3256398914067924
-0.14,-0.98,-0.3119771036536473
-0.13,-0.98,-0.2970830848011622
-0.12,-0.98,-0.28101661473731837
-0.10999999999999999,-0.98,-0.26384110047938514
-0.09999999999999998,-0.98,-0.24562432593539316
-0.08999999999999997,-0.98,-0.2264381843920143
-0.07999999999999996,-0.98,-0.20635839478460638
-0.06999999999999995,-0.98,-0.18546420286916662
-0.05999999999999994,-0.98,-0.1638380684755369
-0.04999999999999993,-0.98,-0.1415653400761278
-0.040000000000000036,-0.98,-0.11873391795448997
-0.030000000000000027,-0.98,-0.0954339073030532
-0.020000000000000018,-0.98,-0.0717572626190963
-0.010000000000000009,-0.98,-0.04779742480235669
0.0,-0.98,-0.02364895238648844
0.010000000000000009,-0.98,0.0005928516402705971
0.020000000000000018,-0.98,0.024832315952453683
0.030000000000000027,-0.98,0.04897377845837841
0.040000000000000036,-0.98,0.07292196383471908
0.050000000000000044,-0.98,0.09658235953468049
0.06000000000000005,-0.98,0.11986158878584129
0.07000000000000006,-0.98,0.14266777910561554
0.08000000000000007,-0.98,0.16491092487996822
0.09000000000000008,-0.98,0.18650324257445489
0.10000000000000009,-0.98,0.20735951717572676
0.1100000000000001,-0.98,0.22739743849625818
0.1200000000000001,-0.98,0.24653792601505262
0.13000000000000012,-0.98,0.2647054409723304
0.14000000000000012,-0.98,0.2818282844865029
0.15000000000000013,-0.98,0.297838880516903
0.15999999999999992,-0.98,0.31267404255554454
0.16999999999999993,-0.98,0.32627522299540124
0.17999999999999994,-0.98,0.33858874419106544
0.18999999999999995,-0.98,0.3495660102998911
0.19999999999999996,-0.98,0.3591636990675818
0.20999999999999996,-0.98,0.3673439328013389
0.21999999999999997,-0.98,0.3740744278558084
0.22999999999999998,-0.98,0.37932862204188095
0.24,-0.98,0.38308577945551725
0.25,-0.98,0.38533107231288755
0.26,-0.98,0.38605563946886057
0.27,-0.98,0.38525662138789485
0.28,-0.98,0.3829371714293194
0.29000000000000004,-0.98,0.3791064434024647
0.30000000000000004,-0.98,0.3737795554407598
0.31000000000000005,-0.98,0.3669775303373655
0.32000000000000006,-0.98,0.35872721257781603
0.33000000000000007,-0.98,0.3490611623970958
0.3400000000000001,-0.98,0.3380175272792701
0.3500000000000001,-0.98,0.3256398914067925
0.3600000000000001,-0.98,0.3119771036536474
0.3700000000000001,-0.98,0.2970830848011623
0.3800000000000001,-0.98,0.2810166147373182
0.3900000000000001,-0.98,0.26384110047938514
0.40000000000000013,-0.98,0.24562432593539285
0.4099999999999999,-0.98,0.22643818439201424
0.41999999999999993,-0.98,0.20635839478460638
0.42999999999999994,-0.98,0.1854642028691666
0.43999999999999995,-0.98,0.1638380684755369
0.44999999999999996,-0.98,0.1415653400761278
0.45999999999999996,-0.98,0.11873391795449002
0.47,-0.98,0.0954339073030532
0.48,-0.98,0.07175726261909625
0.49,-0.98,0.04779742480235666
0.5,-0.98,0.02364895238648841
0.51,-0.98,-0.0005928516402706838
0.52,-0.98,-0.024832315952453686
0.53,-0.98,-0.048973778458378484
0.54,-0.98,-0.07292196383471918
0.55,-0.98,-0.09658235953468043
0.56,-0.98,-0.11986158878584127
0.5700000000000001,-0.98,-0.14266777910561557
0.5800000000000001,-0.98,-0.16491092487996833
0.5900000000000001,-0.98,-0.18650324257445466
0.6000000000000001,-0.98,-0.2073595171757267
0.6100000000000001,-0.98,-0.22739743849625824
0.6200000000000001,-0.98,-0.2465379260150527
0.6300000000000001,-0.98,-0.2647054409723303
0.6400000000000001,-0.98,-0.281828284486503
0.6500000000000001,-0.98,-0.2978388805169031
0.6600000000000001,-0.98,-0.31267404255554443
0.6699999999999999,-0.98,-0.32627522299540135
0.6799999999999999,-0.98,-0.3385887441910656
0.69,-0.98,-0.349566010299891
0.7,-0.98,-0.3591636990675819
0.71,-0.98,-0.36734393280133915
0.72,-0.98,-0.37407442785580847
0.73,-0.98,-0.3793286220418811
0.74,-0.98,-0.3830857794555173
0.75,-0.98,-0.38533107231288777
0.76,-0.98,-0.38605563946886057
0.77,-0.98,-0.38525662138789485
0.78,-0.98,-0.3829371714293194
0.79,-0.98,-0.3791064434024648
0.8,-0.98,-0.3737795554407597
0.81,-0.98,-0.36697753033736547
0.8200000000000001,-0.98,-0.358727212577816
0.8300000000000001,-0.98,-0.34906116239709595
0.8400000000000001,-0.98,-0.33801752727927037
0.8500000000000001,-0.98,-0.32563989140679267
0.8600000000000001,-0.98,-0.3119771036536474
0.8700000000000001,-0.98,-0.29708308480116247
0.8800000000000001,-0.98,-0.28101661473731826
0.8900000000000001,-0.98,-0.2638411004793851
0.9000000000000001,-0.98,-0.24562432593539296
0.9100000000000001,-0.98,-0.2264381843920143
0.9199999999999999,-0.98,-0.2063583947846064
0.9299999999999999,-0.98,-0.18546420286916654
0.94,-0.98,-0.16383806847553684
0.95,-0.98,-0.1415653400761277
0.96,-0.98,-0.11873391795448998
0.97,-0.98,-0.0954339073030532
0.98,-0.98,-0.07175726261909623
0.99,-0.98,-0.04779742480235663
1.0,-0.98,-0.02364895238648841

-1.0,-0.97,-0.004814356378806353
-0.99,-0.97,0.022123366449872547
-0.98,-0.97,0.04897377845837847
-0.97,-0.97,0.07563091333730027
-0.96,-0.97,0.10198956755375742
-0.95,-0.97,0.12794571554168122
-0.94,-0.97,0.1533969202431991
-0.9299999999999999,-0.97,0.1782427373809039
-0.92,-0.97,0.2023851118655272
-0.91,-0.97,0.2257287647745798
-0.9,-0.97,0.24818156937473018
-0.89,-0.97,0.26965491470393227
-0.88,-0.97,0.2900640552784106
-0.87,-0.97,0.3093284455443661
-0.86,-0.97,0.32737205775448247
-0.85,-0.97,0.34412368201470855
-0.84,-0.97,0.3595172073171783
-0.83,-0.97,0.3734918824501555
-0.8200000000000001,-0.97,0.38599255575531266
-0.81,-0.97,0.39696989278612804
-0.8,-0.97,0.40638057100840985
-0.79,-0.97,0.4141874507745439
-0.78,-0.97,0.42035972189671794
-0.77,-0.97,0.42487302524065507
-0.76,-0.97,0.4277095488599888
-0.75,-0.97,0.4288580982918783
-0.74,-0.97,0.4283141407364378
-0.73,-0.97,0.4260798229456284
-0.72,-0.97,0.42216396275100776
-0.71,-0.97,0.4165820142637773
-0.7,-0.97,0.4093560068844667
-0.69,-0.97,0.4005144583629535
-0.6799999999999999,-0.97,0.39009226225193266
-0.6699999999999999,-0.97,0.3781305501980057
-0.6599999999999999,-0.97,0.36467652961386354
-0.6499999999999999,-0.97,0.3497832973721936
-0.64,-0.97,0.33350963025658403
-0.63,-0.97,0.3159197529964086
-0.62,-0.97,0.2970830848011623
-0.61,-0.97,0.2770739653945573
-0.6,-0.97,0.2559713616295936
-0.59,-0.97,0.23385855584246956
-0.5800000000000001,-0.97,0.21082281717524665
-0.5700000000000001,-0.97,0.18695505716441674
-0.56,-0.97,0.16234947095459967
-0.55,-0.97,0.13710316555334306
-0.54,-0.97,0.11131577659412556
-0.53,-0.97,0.08508907512003193
-0.52,-0.97,0.058526565939940295
-0.51,-0.97,0.03173307914232832
-0.5,-0.97,0.004814356378806402
-0.49,-0.97,-0.022123366449872485
-0.48,-0.97,-0.048973778458378366
-0.47,-0.97,-0.07563091333730024
-0.45999999999999996,-0.97,-0.10198956755375736
-0.44999999999999996,-0.97,-0.1279457155416811
-0.43999999999999995,-0.97,-0.15339692024319912
-0.42999999999999994,-0.97,-0.17824273738090396
-0.42000000000000004,-0.97,-0.20238511186552718
-0.41000000000000003,-0.97,-0.22572876477457965
-0.4,-0.97,-0.24818156937473018
-0.39,-0.97,-0.2696549147039323
-0.38,-0.97,-0.29006405527841045
-0.37,-0.97,-0.309328445544366
-0.36,-0.97,-0.3273720577544827
-0.35,-0.97,-0.34412368201470855
-0.33999999999999997,-0.97,-0.3595172073171784
-0.32999999999999996,-0.97,-0.37349188245015585
-0.31999999999999995,-0.97,-0.38599255575531277
-0.30999999999999994,-0.97,-0.39696989278612804
-0.29999999999999993,-0.97,-0.40638057100840985
-0.29000000000000004,-0.97,-0.4141874507745439
-0.28,-0.97,-0.42035972189671794
-0.27,-0.97,-0.42487302524065507
-0.26,-0.97,-0.42770954885998885
-0.25,-0.97,-0.4288580982918786
-0.24,-0.97,-0.4283141407364379
-0.22999999999999998,-0.97,-0.42607982294562863
-0.21999999999999997,-0.97,-0.4221639627510076
-0.20999999999999996,-0.97,-0.4165820142637772
-0.19999999999999996,-0.97,-0.4093560068844665
-0.18999999999999995,-0.97,-0.40051445836295363
-0.17999999999999994,-0.97,-0.3900922622519325
-0.16999999999999993,-0.97,-0.3781305501980057
-0.16000000000000003,-0.97,-0.364676529613863
-0.15000000000000002,-0.97,-0.3497832973721936
-0.14,-0.97,-0.33350963025658387
-0.13,-0.97,-0.31591975299640856
-0.12,-0.97,-0.2970830848011624
-0.10999999999999999,-0.97,-0.27707396539455736
-0.09999999999999998,-0.97,-0.25597136162959366
-0.08999999999999997,-0.97,-0.2338585558424695
-0.07999999999999996,-0.97,-0.21082281717524665
-0.06999999999999995,-0.97,-0.18695505716441657
-0.05999999999999994,-0.97,-0.16234947095459965
-0.04999999999999993,-0.97,-0.13710316555334293
-0.040000000000000036,-0.97,-0.11131577659412546
-0.030000000000000027,-0.97,-0.08508907512003194
-0.020000000000000018,-0.97,-0.05852656593994028
-0.010000000000000009,-0.97,-0.031733079142328265
0.0,-0.97,-0.004814356378806372
0.010000000000000009,-0.97,0.0221233664498725
0.020000000000000018,-0.97,0.048973778458378414
0.030000000000000027,-0.97,0.07563091333730027
0.040000000000000036,-0.97,0.10198956755375745
0.050000000000000044,-0.97,0.1279457155416811
0.06000000000000005,-0.97,0.1533969202431991
0.07000000000000006,-0.97,0.17824273738090385
0.08000000000000007,-0.97,0.2023851118655271
0.09000000000000008,-0.97,0.22572876477457973
0.10000000000000009,-0.97,0.24818156937473002
0.1100000000000001,-0.97,0.26965491470393227
0.1200000000000001,-0.97,0.2900640552784104
0.13000000000000012,-0.97,0.3093284455443661
0.14000000000000012,-0.97,0.3273720577544824
0.15000000000000013,-0.97,0.34412368201470867
0.15999999999999992,-0.97,0.35951720731717846
0.16999999999999993,-0.97,0.37349188245015563
0.17999999999999994,-0.97,0.38599255575531277
0.18999999999999995,-0.97,0.396969892786128
0.19999999999999996,-0.97,0.40638057100840974
0.20999999999999996,-0.97,0.41418745077454383
0.21999999999999997,-0.97,0.4203597218967178
0.22999999999999998,-0.97,0.42487302524065496
0.24,-0.97,0.4277095488599888
0.25,-0.97,0.42885809829187826
0.26,-0.97,0.4283141407364379
0.27,-0.97,0.42607982294562846
0.28,-0.97,0.42216396275100776
0.29000000000000004,-0.97,0.4165820142637775
0.30000000000000004,-0.97,0.4093560068844666
0.31000000000000005,-0.97,0.4005144583629538
0.32000000000000006,-0.97,0.3900922622519326
0.33000000000000007,-0.97,0.3781305501980055
0.3400000000000001,-0.97,0.3646765296138632
0.3500000000000001,-0.97,0.3497832973721937
0.3600000000000001,-0.97,0.33350963025658403
0.3700000000000001,-0.97,0.31591975299640845
0.3800000000000001,-0.97,0.29708308480116236
0.3900000000000001,-0.97,0.277073965394557
0.40000000000000013,-0.97,0.25597136162959366
0.4099999999999999,-0.97,0.2338585558424696
0.41999999999999993,-0.97,0.21082281717524665
0.42999999999999994,-0.97,0.18695505716441663
0.43999999999999995,-0.97,0.16234947095459967
0.44999999999999996,-0.97,0.13710316555334295
0.45999999999999996,-0.97,0.11131577659412549
0.47,-0.97,0.08508907512003189
0.48,-0.97,0.05852656593994025
0.49,-0.97,0.03173307914232824
0.5,-0.97,0.0048143563788062785
0.51,-0.97,-0.022123366449872513
0.52,-0.97,-0.048973778458378484
0.53,-0.97,-0.07563091333730035
0.54,-0.97,-0.1019895675537574
0.55,-0.97,-0.1279457155416811
0.56,-0.97,-0.15339692024319915
0.5700000000000001,-0.97,-0.17824273738090396
0.5800000000000001,-0.97,-0.20238511186552693
0.5900000000000001,-0.97,-0.22572876477457968
0.6000000000000001,-0.97,-0.2481815693747301