TITLE = "Solution" 
VARIABLES = "x", "y", "sol" 
ZONE STRANDID=1, SOLUTIONTIME= 1.7999999999999836, I= 201, J =201, DATAPACKING=POINT 
-1.0,-1.0,0.6500653561330998
-0.99,-1.0,0.6672362713276332
-0.98,-1.0,0.6817739097904925
-0.97,-1.0,0.6936208981042808
-0.96,-1.0,0.7027304816184976
-0.95,-1.0,0.7090667089687843
-0.94,-1.0,0.7126045739605367
-0.9299999999999999,-1.0,0.7133301142569298
-0.92,-1.0,0.71124046648188
-0.91,-1.0,0.7063438775204869
-0.9,-1.0,0.6986596719723435
-0.89,-1.0,0.6882181758861675
-0.88,-1.0,0.6750605970767449
-0.87,-1.0,0.6592388624965123
-0.86,-1.0,0.6408154133035927
-0.85,-1.0,0.619862958435079
-0.84,-1.0,0.5964641876580699
-0.83,-1.0,0.5707114452309416
-0.8200000000000001,-1.0,0.5427063654627446
-0.81,-1.0,0.5125594716090206
-0.8,-1.0,0.4803897396870038
-0.79,-1.0,0.44632412893163853
-0.78,-1.0,0.4104970807454784
-0.77,-1.0,0.3730499881198933
-0.76,-1.0,0.33413063762152695
-0.75,-1.0,0.2938926261462365
-0.74,-1.0,0.252494754742316
-0.73,-1.0,0.21010040189530851
-0.72,-1.0,0.16687687874776339
-0.71,-1.0,0.12299476879859486
-0.7,-1.0,0.07862725468794321
-0.69,-1.0,0.033949434724414015
-0.6799999999999999,-1.0,-0.010862368147950932
-0.6699999999999999,-1.0,-0.05563130221577993
-0.6599999999999999,-1.0,-0.1001806849492878
-0.6499999999999999,-1.0,-0.14433470028750217
-0.64,-1.0,-0.18791909250393407
-0.63,-1.0,-0.2307618539143198
-0.62,-1.0,-0.27269390371236857
-0.61,-1.0,-0.31354975525445905
-0.6,-1.0,-0.3531681691598172
-0.59,-1.0,-0.3913927896486905
-0.5800000000000001,-1.0,-0.42807276160717744
-0.5700000000000001,-1.0,-0.46306332594344246
-0.56,-1.0,-0.4962263908857195
-0.55,-1.0,-0.5274310769674445
-0.54,-1.0,-0.5565542335487168
-0.53,-1.0,-0.5834809248356154
-0.52,-1.0,-0.6081048834792666
-0.51,-1.0,-0.6303289299645204
-0.5,-1.0,-0.6500653561330998
-0.49,-1.0,-0.6672362713276333
-0.48,-1.0,-0.6817739097904929
-0.47,-1.0,-0.6936208981042812
-0.45999999999999996,-1.0,-0.7027304816184978
-0.44999999999999996,-1.0,-0.7090667089687843
-0.43999999999999995,-1.0,-0.7126045739605371
-0.42999999999999994,-1.0,-0.7133301142569292
-0.42000000000000004,-1.0,-0.7112404664818797
-0.41000000000000003,-1.0,-0.7063438775204873
-0.4,-1.0,-0.698659671972343
-0.39,-1.0,-0.6882181758861672
-0.38,-1.0,-0.6750605970767456
-0.37,-1.0,-0.6592388624965124
-0.36,-1.0,-0.6408154133035927
-0.35,-1.0,-0.6198629584350788
-0.33999999999999997,-1.0,-0.5964641876580701
-0.32999999999999996,-1.0,-0.5707114452309416
-0.31999999999999995,-1.0,-0.5427063654627449
-0.30999999999999994,-1.0,-0.5125594716090205
-0.29999999999999993,-1.0,-0.4803897396870039
-0.29000000000000004,-1.0,-0.44632412893163853
-0.28,-1.0,-0.4104970807454785
-0.27,-1.0,-0.3730499881198931
-0.26,-1.0,-0.3341306376215269
-0.25,-1.0,-0.29389262614623635
-0.24,-1.0,-0.252494754742316
-0.22999999999999998,-1.0,-0.21010040189530832
-0.21999999999999997,-1.0,-0.1668768787477634
-0.20999999999999996,-1.0,-0.12299476879859504
-0.19999999999999996,-1.0,-0.07862725468794327
-0.18999999999999995,-1.0,-0.03394943472441406
-0.17999999999999994,-1.0,0.010862368147951024
-0.16999999999999993,-1.0,0.05563130221578006
-0.16000000000000003,-1.0,0.10018068494928797
-0.15000000000000002,-1.0,0.14433470028750217
-0.14,-1.0,0.18791909250393402
-0.13,-1.0,0.23076185391431997
-0.12,-1.0,0.2726939037123687
-0.10999999999999999,-1.0,0.3135497552544591
-0.09999999999999998,-1.0,0.3531681691598171
-0.08999999999999997,-1.0,0.3913927896486908
-0.07999999999999996,-1.0,0.42807276160717733
-0.06999999999999995,-1.0,0.4630633259434428
-0.05999999999999994,-1.0,0.4962263908857195
-0.04999999999999993,-1.0,0.5274310769674443
-0.040000000000000036,-1.0,0.556554233548717
-0.030000000000000027,-1.0,0.5834809248356163
-0.020000000000000018,-1.0,0.6081048834792672
-0.010000000000000009,-1.0,0.6303289299645204
0.0,-1.0,0.6500653561331
0.010000000000000009,-1.0,0.6672362713276331
0.020000000000000018,-1.0,0.6817739097904929
0.030000000000000027,-1.0,0.6936208981042812
0.040000000000000036,-1.0,0.7027304816184976
0.050000000000000044,-1.0,0.7090667089687841
0.06000000000000005,-1.0,0.7126045739605369
0.07000000000000006,-1.0,0.713330114256929
0.08000000000000007,-1.0,0.7112404664818796
0.09000000000000008,-1.0,0.7063438775204873
0.10000000000000009,-1.0,0.698659671972343
0.1100000000000001,-1.0,0.6882181758861671
0.1200000000000001,-1.0,0.6750605970767449
0.13000000000000012,-1.0,0.6592388624965115
0.14000000000000012,-1.0,0.6408154133035927
0.15000000000000013,-1.0,0.6198629584350787
0.15999999999999992,-1.0,0.5964641876580696
0.16999999999999993,-1.0,0.5707114452309421
0.17999999999999994,-1.0,0.5427063654627449
0.18999999999999995,-1.0,0.5125594716090207
0.19999999999999996,-1.0,0.4803897396870037
0.20999999999999996,-1.0,0.4463241289316385
0.21999999999999997,-1.0,0.4104970807454784
0.22999999999999998,-1.0,0.37304998811989315
0.24,-1.0,0.33413063762152706
0.25,-1.0,0.2938926261462368
0.26,-1.0,0.2524947547423161
0.27,-1.0,0.21010040189530854
0.28,-1.0,0.16687687874776364
0.29000000000000004,-1.0,0.1229947687985951
0.30000000000000004,-1.0,0.0786272546879434
0.31000000000000005,-1.0,0.03394943472441421
0.32000000000000006,-1.0,-0.010862368147950899
0.33000000000000007,-1.0,-0.055631302215779874
0.3400000000000001,-1.0,-0.10018068494928761
0.3500000000000001,-1.0,-0.14433470028750212
0.3600000000000001,-1.0,-0.18791909250393396
0.3700000000000001,-1.0,-0.23076185391431983
0.3800000000000001,-1.0,-0.27269390371236857
0.3900000000000001,-1.0,-0.31354975525445883
0.40000000000000013,-1.0,-0.35316816915981725
0.4099999999999999,-1.0,-0.3913927896486908
0.41999999999999993,-1.0,-0.4280727616071771
0.42999999999999994,-1.0,-0.4630633259434429
0.43999999999999995,-1.0,-0.4962263908857197
0.44999999999999996,-1.0,-0.5274310769674442
0.45999999999999996,-1.0,-0.5565542335487166
0.47,-1.0,-0.5834809248356158
0.48,-1.0,-0.6081048834792673
0.49,-1.0,-0.6303289299645205
0.5,-1.0,-0.6500653561330996
0.51,-1.0,-0.6672362713276332
0.52,-1.0,-0.6817739097904928
0.53,-1.0,-0.6936208981042814
0.54,-1.0,-0.7027304816184976
0.55,-1.0,-0.709066708968784
0.56,-1.0,-0.7126045739605364
0.5700000000000001,-1.0,-0.7133301142569293
0.5800000000000001,-1.0,-0.7112404664818796
0.5900000000000001,-1.0,-0.7063438775204867
0.6000000000000001,-1.0,-0.6986596719723435
0.6100000000000001,-1.0,-0.688218175886167
0.6200000000000001,-1.0,-0.6750605970767452
0.6300000000000001,-1.0,-0.6592388624965116
0.6400000000000001,-1.0,-0.6408154133035927
0.6500000000000001,-1.0,-0.6198629584350788
0.6600000000000001,-1.0,-0.5964641876580705
0.6699999999999999,-1.0,-0.5707114452309416
0.6799999999999999,-1.0,-0.5427063654627449
0.69,-1.0,-0.5125594716090205
0.7,-1.0,-0.4803897396870039
0.71,-1.0,-0.44632412893163853
0.72,-1.0,-0.4104970807454787
0.73,-1.0,-0.3730499881198933
0.74,-1.0,-0.334130637621527
0.75,-1.0,-0.29389262614623674
0.76,-1.0,-0.25249475474231586
0.77,-1.0,-0.21010040189530854
0.78,-1.0,-0.1668768787477636
0.79,-1.0,-0.12299476879859508
0.8,-1.0,-0.07862725468794335
0.81,-1.0,-0.033949434724414106
0.8200000000000001,-1.0,0.010862368147950935
0.8300000000000001,-1.0,0.05563130221577996
0.8400000000000001,-1.0,0.10018068494928772
0.8500000000000001,-1.0,0.14433470028750223
0.8600000000000001,-1.0,0.18791909250393402
0.8700000000000001,-1.0,0.23076185391431986
0.8800000000000001,-1.0,0.27269390371236857
0.8900000000000001,-1.0,0.3135497552544589
0.9000000000000001,-1.0,0.35316816915981736
0.9100000000000001,-1.0,0.3913927896486906
0.9199999999999999,-1.0,0.4280727616071774
0.9299999999999999,-1.0,0.4630633259434427
0.94,-1.0,0.4962263908857196
0.95,-1.0,0.5274310769674445
0.96,-1.0,0.5565542335487169
0.97,-1.0,0.5834809248356162
0.98,-1.0,0.6081048834792669
0.99,-1.0,0.6303289299645205
1.0,-1.0,0.6500653561330998

-1.0,-0.99,0.6672362713276332
-0.99,-0.99,0.6837101989675574
-0.98,-0.99,0.6974858348096353
-0.97,-0.99,0.7085088127126868
-0.96,-0.99,0.716735630018848
-0.95,-0.99,0.7221338192386872
-0.94,-0.99,0.7246820761855524
-0.9299999999999999,-0.99,0.7243703440534603
-0.92,-0.99,0.7211998531067205
-0.91,-0.99,0.715183115824641
-0.9,-0.99,0.7063438775204873
-0.89,-0.99,0.694717022629582
-0.88,-0.99,0.6803484370363762
-0.87,-0.99,0.6632948269838217
-0.86,-0.99,0.6436234952797446
-0.85,-0.99,0.6214120756834027
-0.84,-0.99,0.5967482265205117
-0.83,-0.99,0.5697292847358759
-0.8200000000000001,-0.99,0.5404618817489393
-0.81,-0.99,0.5090615226282869
-0.8,-0.99,0.4756521302459078
-0.79,-0.99,0.4403655562102359
-0.78,-0.99,0.4033410605080881
-0.77,-0.99,0.3647247619091175
-0.76,-0.99,0.32466906130178563
-0.75,-0.99,0.28333204023668035
-0.74,-0.99,0.24087683705085755
-0.73,-0.99,0.19747100303535398
-0.72,-0.99,0.15328584118678967
-0.71,-0.99,0.10849573015270073
-0.7,-0.99,0.06327743603868326
-0.69,-0.99,0.017809414793331917
-0.6799999999999999,-0.99,-0.02772889207586109
-0.6699999999999999,-0.99,-0.07315776567615657
-0.6599999999999999,-0.99,-0.1182979189979321
-0.6499999999999999,-0.99,-0.16297120447860125
-0.64,-0.99,-0.2070013170696543
-0.63,-0.99,-0.2502144900321397
-0.62,-0.99,-0.2924401807145951
-0.61,-0.99,-0.33351174360698
-0.6,-0.99,-0.3732670880143706
-0.59,-0.99,-0.4115493177548799
-0.5800000000000001,-0.99,-0.4482073503572088
-0.5700000000000001,-0.99,-0.4830965133141392
-0.56,-0.99,-0.5160791150388218
-0.55,-0.99,-0.547024988270566
-0.54,-0.99,-0.5758120037855516
-0.53,-0.99,-0.6023265523850773
-0.52,-0.99,-0.6264639932591662
-0.51,-0.99,-0.6481290669560349
-0.5,-0.99,-0.6672362713276333
-0.49,-0.99,-0.6837101989675578
-0.48,-0.99,-0.6974858348096356
-0.47,-0.99,-0.7085088127126871
-0.45999999999999996,-0.99,-0.7167356300188481
-0.44999999999999996,-0.99,-0.7221338192386877
-0.43999999999999995,-0.99,-0.7246820761855517
-0.42999999999999994,-0.99,-0.7243703440534601
-0.42000000000000004,-0.99,-0.721199853106721
-0.41000000000000003,-0.99,-0.7151831158246407
-0.4,-0.99,-0.7063438775204873
-0.39,-0.99,-0.6947170226295828
-0.38,-0.99,-0.6803484370363762
-0.37,-0.99,-0.6632948269838216
-0.36,-0.99,-0.643623495279744
-0.35,-0.99,-0.621412075683403
-0.33999999999999997,-0.99,-0.5967482265205117
-0.32999999999999996,-0.99,-0.569729284735876
-0.31999999999999995,-0.99,-0.5404618817489393
-0.30999999999999994,-0.99,-0.5090615226282869
-0.29999999999999993,-0.99,-0.4756521302459078
-0.29000000000000004,-0.99,-0.440365556210236
-0.28,-0.99,-0.40334106050808793
-0.27,-0.99,-0.3647247619091175
-0.26,-0.99,-0.3246690613017854
-0.25,-0.99,-0.28333204023668035
-0.24,-0.99,-0.24087683705085736
-0.22999999999999998,-0.99,-0.19747100303535398
-0.21999999999999997,-0.99,-0.1532858411867899
-0.20999999999999996,-0.99,-0.10849573015270078
-0.19999999999999996,-0.99,-0.0632774360386833
-0.18999999999999995,-0.99,-0.017809414793331833
-0.17999999999999994,-0.99,0.027728892075861225
-0.16999999999999993,-0.99,0.07315776567615673
-0.16000000000000003,-0.99,0.11829791899793211
-0.15000000000000002,-0.99,0.16297120447860117
-0.14,-0.99,0.20700131706965447
-0.13,-0.99,0.2502144900321397
-0.12,-0.99,0.2924401807145952
-0.10999999999999999,-0.99,0.33351174360698
-0.09999999999999998,-0.99,0.3732670880143708
-0.08999999999999997,-0.99,0.41154931775487974
-0.07999999999999996,-0.99,0.44820735035720916
-0.06999999999999995,-0.99,0.4830965133141391
-0.05999999999999994,-0.99,0.5160791150388218
-0.04999999999999993,-0.99,0.5470249882705662
-0.040000000000000036,-0.99,0.5758120037855525
-0.030000000000000027,-0.99,0.6023265523850778
-0.020000000000000018,-0.99,0.626463993259166
-0.010000000000000009,-0.99,0.648129066956035
0.0,-0.99,0.6672362713276331
0.010000000000000009,-0.99,0.6837101989675578
0.020000000000000018,-0.99,0.6974858348096354
0.030000000000000027,-0.99,0.7085088127126868
0.040000000000000036,-0.99,0.716735630018848
0.050000000000000044,-0.99,0.7221338192386875
0.06000000000000005,-0.99,0.7246820761855516
0.07000000000000006,-0.99,0.7243703440534597
0.08000000000000007,-0.99,0.721199853106721
0.09000000000000008,-0.99,0.7151831158246407
0.10000000000000009,-0.99,0.7063438775204868
0.1100000000000001,-0.99,0.6947170226295821
0.1200000000000001,-0.99,0.6803484370363754
0.13000000000000012,-0.99,0.6632948269838217
0.14000000000000012,-0.99,0.6436234952797442
0.15000000000000013,-0.99,0.6214120756834025
0.15999999999999992,-0.99,0.596748226520512
0.16999999999999993,-0.99,0.5697292847358761
0.17999999999999994,-0.99,0.5404618817489395
0.18999999999999995,-0.99,0.5090615226282865
0.19999999999999996,-0.99,0.47565213024590774
0.20999999999999996,-0.99,0.44036555621023576
0.21999999999999997,-0.99,0.40334106050808793
0.22999999999999998,-0.99,0.36472476190911757
0.24,-0.99,0.32466906130178586
0.25,-0.99,0.28333204023668046
0.26,-0.99,0.2408768370508576
0.27,-0.99,0.19747100303535425
0.28,-0.99,0.15328584118678992
0.29000000000000004,-0.99,0.10849573015270092
0.30000000000000004,-0.99,0.06327743603868347
0.31000000000000005,-0.99,0.017809414793331955
0.32000000000000006,-0.99,-0.027728892075861006
0.33000000000000007,-0.99,-0.0731577656761564
0.3400000000000001,-0.99,-0.11829791899793204
0.3500000000000001,-0.99,-0.16297120447860114
0.3600000000000001,-0.99,-0.2070013170696543
0.3700000000000001,-0.99,-0.25021449003213964
0.3800000000000001,-0.99,-0.2924401807145949
0.3900000000000001,-0.99,-0.3335117436069801
0.40000000000000013,-0.99,-0.3732670880143708
0.4099999999999999,-0.99,-0.4115493177548796
0.41999999999999993,-0.99,-0.4482073503572093
0.42999999999999994,-0.99,-0.4830965133141394
0.43999999999999995,-0.99,-0.5160791150388215
0.44999999999999996,-0.99,-0.547024988270566
0.45999999999999996,-0.99,-0.5758120037855521
0.47,-0.99,-0.6023265523850779
0.48,-0.99,-0.6264639932591665
0.49,-0.99,-0.6481290669560347
0.5,-0.99,-0.6672362713276333
0.51,-0.99,-0.6837101989675576
0.52,-0.99,-0.6974858348096357
0.53,-0.99,-0.7085088127126868
0.54,-0.99,-0.716735630018848
0.55,-0.99,-0.7221338192386872
0.56,-0.99,-0.7246820761855518
0.5700000000000001,-0.99,-0.7243703440534599
0.5800000000000001,-0.99,-0.7211998531067203
0.5900000000000001,-0.99,-0.7151831158246409
0.6000000000000001,-0.99,-0.706343877520487
0.6100000000000001,-0.99,-0.6947170226295821
0.6200000000000001,-0.99,-0.6803484370363755
0.6300000000000001,-0.99,-0.6632948269838217
0.6400000000000001,-0.99,-0.6436234952797443
0.6500000000000001,-0.99,-0.6214120756834032
0.6600000000000001,-0.99,-0.5967482265205115
0.6699999999999999,-0.99,-0.5697292847358759
0.6799999999999999,-0.99,-0.5404618817489394
0.69,-0.99,-0.5090615226282867
0.7,-0.99,-0.4756521302459078
0.71,-0.99,-0.44036555621023626
0.72,-0.99,-0.40334106050808816
0.73,-0.99,-0.3647247619091176
0.74,-0.99,-0.3246690613017858
0.75,-0.99,-0.28333204023668024
0.76,-0.99,-0.24087683705085755
0.77,-0.99,-0.1974710030353542
0.78,-0.99,-0.1532858411867899
0.79,-0.99,-0.10849573015270085
0.8,-0.99,-0.06327743603868333
0.81,-0.99,-0.017809414793331906
0.8200000000000001,-0.99,0.027728892075861118
0.8300000000000001,-0.99,0.0731577656761565
0.8400000000000001,-0.99,0.11829791899793216
0.8500000000000001,-0.99,0.1629712044786012
0.8600000000000001,-0.99,0.20700131706965438
0.8700000000000001,-0.99,0.2502144900321396
0.8800000000000001,-0.99,0.292440180714595
0.8900000000000001,-0.99,0.3335117436069802
0.9000000000000001,-0.99,0.37326708801437064
0.9100000000000001,-0.99,0.4115493177548798
0.9199999999999999,-0.99,0.44820735035720916
0.9299999999999999,-0.99,0.4830965133141394
0.94,-0.99,0.516079115038822
0.95,-0.99,0.5470249882705662
0.96,-0.99,0.5758120037855523
0.97,-0.99,0.6023265523850776
0.98,-0.99,0.6264639932591662
0.99,-0.99,0.6481290669560349
1.0,-0.99,0.6672362713276332

-1.0,-0.98,0.6817739097904927
-0.99,-0.98,0.6974858348096356
-0.98,-0.98,0.7104451018897517
-0.97,-0.98,0.7206005667242023
-0.96,-0.98,0.7279121503328765
-0.95,-0.98,0.7323509972356164
-0.94,-0.98,0.7338995893316109
-0.9299999999999999,-0.98,0.7325518150353432
-0.92,-0.98,0.7283129933962214
-0.91,-0.98,0.721199853106721
-0.9,-0.98,0.7112404664818797
-0.89,-0.98,0.6984741386706961
-0.88,-0.98,0.6829512525366588
-0.87,-0.98,0.6647330698196083
-0.86,-0.98,0.6438914893636318
-0.85,-0.98,0.6205087633651771
-0.84,-0.98,0.5946771727612088
-0.83,-0.98,0.5664986630385094
-0.8200000000000001,-0.98,0.536084441901418
-0.81,-0.98,0.5035545403858266
-0.8,-0.98,0.4690373391515187
-0.79,-0.98,0.4326690618223573
-0.78,-0.98,0.394593237373875
-0.77,-0.98,0.35496013368998036
-0.76,-0.98,0.3139261645242709
-0.75,-0.98,0.27165327220640667
-0.74,-0.98,0.2283082885297184
-0.73,-0.98,0.18406227634233874
-0.72,-0.98,0.13908985444029132
-0.71,-0.98,0.09356850842687811
-0.7,-0.98,0.047677890258089425
-0.69,-0.98,0.0015991092384081505
-0.6799999999999999,-0.98,-0.044485982734873725
-0.6699999999999999,-0.98,-0.09039550885801326
-0.6599999999999999,-0.98,-0.13594828520547
-0.6499999999999999,-0.98,-0.18096453578008426
-0.64,-0.98,-0.22526660200680687
-0.63,-0.98,-0.2686796438699296
-0.62,-0.98,-0.31103232992675095
-0.61,-0.98,-0.35215751347450663
-0.6,-0.98,-0.3918928922020427
-0.59,-0.98,-0.43008164872288895
-0.5800000000000001,-0.98,-0.46657306946184174
-0.5700000000000001,-0.98,-0.5012231394525881
-0.56,-0.98,-0.5338951106989855
-0.55,-0.98,-0.564460041856929
-0.54,-0.98,-0.5927973071069266
-0.53,-0.98,-0.6187950722091022
-0.52,-0.98,-0.6423507358618455
-0.51,-0.98,-0.6633713346222789
-0.5,-0.98,-0.6817739097904929
-0.49,-0.98,-0.6974858348096354
-0.48,-0.98,-0.710445101889752
-0.47,-0.98,-0.7206005667242025
-0.45999999999999996,-0.98,-0.7279121503328769
-0.44999999999999996,-0.98,-0.7323509972356156
-0.43999999999999995,-0.98,-0.7338995893316108
-0.42999999999999994,-0.98,-0.7325518150353434
-0.42000000000000004,-0.98,-0.728312993396221
-0.41000000000000003,-0.98,-0.721199853106721
-0.4,-0.98,-0.7112404664818804
-0.39,-0.98,-0.6984741386706959
-0.38,-0.98,-0.6829512525366586
-0.37,-0.98,-0.6647330698196078
-0.36,-0.98,-0.6438914893636318
-0.35,-0.98,-0.6205087633651772
-0.33999999999999997,-0.98,-0.5946771727612089
-0.32999999999999996,-0.98,-0.5664986630385095
-0.31999999999999995,-0.98,-0.536084441901418
-0.30999999999999994,-0.98,-0.5035545403858266
-0.29999999999999993,-0.98,-0.4690373391515188
-0.29000000000000004,-0.98,-0.4326690618223572
-0.28,-0.98,-0.39459323737387497
-0.27,-0.98,-0.3549601336899802
-0.26,-0.98,-0.3139261645242709
-0.25,-0.98,-0.27165327220640645
-0.24,-0.98,-0.2283082885297183
-0.22999999999999998,-0.98,-0.18406227634233893
-0.21999999999999997,-0.98,-0.13908985444029137
-0.20999999999999996,-0.98,-0.09356850842687814
-0.19999999999999996,-0.98,-0.047677890258089356
-0.18999999999999995,-0.98,-0.0015991092384080047
-0.17999999999999994,-0.98,0.04448598273487386
-0.16999999999999993,-0.98,0.09039550885801327
-0.16000000000000003,-0.98,0.13594828520546992
-0.15000000000000002,-0.98,0.1809645357800844
-0.14,-0.98,0.22526660200680687
-0.13,-0.98,0.2686796438699298
-0.12,-0.98,0.311032329926751
-0.10999999999999999,-0.98,0.35215751347450686
-0.09999999999999998,-0.98,0.3918928922020426
-0.08999999999999997,-0.98,0.43008164872288923
-0.07999999999999996,-0.98,0.4665730694618415
-0.06999999999999995,-0.98,0.5012231394525882
-0.05999999999999994,-0.98,0.5338951106989859
-0.04999999999999993,-0.98,0.5644600418569299
-0.040000000000000036,-0.98,0.5927973071069272
-0.030000000000000027,-0.98,0.6187950722091021
-0.020000000000000018,-0.98,0.6423507358618457
-0.010000000000000009,-0.98,0.6633713346222787
0.0,-0.98,0.6817739097904929
0.010000000000000009,-0.98,0.6974858348096354
0.020000000000000018,-0.98,0.7104451018897517
0.030000000000000027,-0.98,0.7206005667242024
0.040000000000000036,-0.98,0.7279121503328767
0.050000000000000044,-0.98,0.7323509972356153
0.06000000000000005,-0.98,0.7338995893316105
0.07000000000000006,-0.98,0.7325518150353435
0.08000000000000007,-0.98,0.7283129933962211
0.09000000000000008,-0.98,0.7211998531067203
0.10000000000000009,-0.98,0.7112404664818797
0.1100000000000001,-0.98,0.6984741386706954
0.1200000000000001,-0.98,0.6829512525366588
0.13000000000000012,-0.98,0.6647330698196079
0.14000000000000012,-0.98,0.6438914893636316
0.15000000000000013,-0.98,0.6205087633651776
0.15999999999999992,-0.98,0.594677172761209
0.16999999999999993,-0.98,0.5664986630385096
0.17999999999999994,-0.98,0.5360844419014179
0.18999999999999995,-0.98,0.5035545403858266
0.19999999999999996,-0.98,0.4690373391515186
0.20999999999999996,-0.98,0.43266906182235715
0.21999999999999997,-0.98,0.3945932373738751
0.22999999999999998,-0.98,0.3549601336899807
0.24,-0.98,0.313926164524271
0.25,-0.98,0.27165327220640667
0.26,-0.98,0.22830828852971863
0.27,-0.98,0.18406227634233902
0.28,-0.98,0.13908985444029148
0.29000000000000004,-0.98,0.0935685084268783
0.30000000000000004,-0.98,0.04767789025808948
0.31000000000000005,-0.98,0.0015991092384082459
0.32000000000000006,-0.98,-0.04448598273487354
0.33000000000000007,-0.98,-0.0903955088580132
0.3400000000000001,-0.98,-0.1359482852054699
0.3500000000000001,-0.98,-0.18096453578008423
0.3600000000000001,-0.98,-0.22526660200680682
0.3700000000000001,-0.98,-0.2686796438699295
0.3800000000000001,-0.98,-0.3110323299267511
0.3900000000000001,-0.98,-0.3521575134745069
0.40000000000000013,-0.98,-0.39189289220204243
0.4099999999999999,-0.98,-0.43008164872288934
0.41999999999999993,-0.98,-0.46657306946184185
0.42999999999999994,-0.98,-0.5012231394525881
0.43999999999999995,-0.98,-0.5338951106989857
0.44999999999999996,-0.98,-0.5644600418569294
0.45999999999999996,-0.98,-0.5927973071069272
0.47,-0.98,-0.6187950722091028
0.48,-0.98,-0.6423507358618454
0.49,-0.98,-0.6633713346222792
0.5,-0.98,-0.6817739097904927
0.51,-0.98,-0.6974858348096357
0.52,-0.98,-0.7104451018897517
0.53,-0.98,-0.7206005667242025
0.54,-0.98,-0.7279121503328765
0.55,-0.98,-0.7323509972356157
0.56,-0.98,-0.7338995893316106
0.5700000000000001,-0.98,-0.732551815035343
0.5800000000000001,-0.98,-0.7283129933962214
0.5900000000000001,-0.98,-0.7211998531067203
0.6000000000000001,-0.98,-0.7112404664818798
0.6100000000000001,-0.98,-0.6984741386706954
0.6200000000000001,-0.98,-0.6829512525366588
0.6300000000000001,-0.98,-0.6647330698196081
0.6400000000000001,-0.98,-0.6438914893636323
0.6500000000000001,-0.98,-0.6205087633651771
0.6600000000000001,-0.98,-0.5946771727612089
0.6699999999999999,-0.98,-0.5664986630385096
0.6799999999999999,-0.98,-0.5360844419014179
0.69,-0.98,-0.5035545403858266
0.7,-0.98,-0.469037339151519
0.71,-0.98,-0.4326690618223574
0.72,-0.98,-0.39459323737387514
0.73,-0.98,-0.3549601336899807
0.74,-0.98,-0.31392616452427086
0.75,-0.98,-0.27165327220640667
0.76,-0.98,-0.22830828852971863
0.77,-0.98,-0.18406227634233896
0.78,-0.98,-0.13908985444029143
0.79,-0.98,-0.09356850842687817
0.8,-0.98,-0.04767789025808942
0.81,-0.98,-0.0015991092384081314
0.8200000000000001,-0.98,0.04448598273487367
0.8300000000000001,-0.98,0.09039550885801331
0.8400000000000001,-0.98,0.13594828520546995
0.8500000000000001,-0.98,0.18096453578008428
0.8600000000000001,-0.98,0.22526660200680676
0.8700000000000001,-0.98,0.2686796438699295
0.8800000000000001,-0.98,0.3110323299267512
0.8900000000000001,-0.98,0.35215751347450674
0.9000000000000001,-0.98,0.39189289220204265
0.9100000000000001,-0.98,0.43008164872288923
0.9199999999999999,-0.98,0.46657306946184174
0.9299999999999999,-0.98,0.5012231394525883
0.94,-0.98,0.5338951106989859
0.95,-0.98,0.5644600418569297
0.96,-0.98,0.592797307106927
0.97,-0.98,0.6187950722091025
0.98,-0.98,0.6423507358618457
0.99,-0.98,0.6633713346222789
1.0,-0.98,0.6817739097904927

-1.0,-0.97,0.6936208981042813
-0.99,-0.97,0.7085088127126868
-0.98,-0.97,0.7206005667242024
-0.97,-0.97,0.7298484395099414
-0.96,-0.97,0.7362159339409706
-0.95,-0.97,0.7396779204258002
-0.94,-0.97,0.7402207360854071
-0.9299999999999999,-0.97,0.7378422386743719
-0.92,-0.97,0.7325518150353433
-0.91,-0.97,0.7243703440534599
-0.9,-0.97,0.7133301142569297
-0.89,-0.97,0.6994746963889565
-0.88,-0.97,0.6828587714539283
-0.87,-0.97,0.6635479149164689
-0.86,-0.97,0.641618337905041
-0.85,-0.97,0.6171565864414379
-0.84,-0.97,0.590259199883175
-0.83,-0.97,0.5610323299267509
-0.8200000000000001,-0.97,0.5295913216753967
-0.81,-0.97,0.4960602584246499
-0.8,-0.97,0.4605714719622761
-0.79,-0.97,0.4232650203151579
-0.78,-0.97,0.3842881350042496
-0.77,-0.97,0.3437946399890285
-0.76,-0.97,0.3019443445946015
-0.75,-0.97,0.25890241281730897
-0.74,-0.97,0.21483871149788777
-0.73,-0.97,0.16992713993465572
-0.72,-0.97,0.12434494358242716
-0.71,-0.97,0.07827201454567999
-0.7,-0.97,0.03189018162660299
-0.69,-0.97,-0.014617507270116216
-0.6799999999999999,-0.97,-0.061067507543744
-0.6699999999999999,-0.97,-0.10727650226418714
-0.6599999999999999,-0.97,-0.15306212564016541
-0.6499999999999999,-0.97,-0.19824368273367565
-0.64,-0.97,-0.24264286258035955
-0.63,-0.97,-0.2860844419014181
-0.62,-0.97,-0.32839697662984124
-0.61,-0.97,-0.3694134785218137
-0.6,-0.97,-0.40897207418302517
-0.59,-0.97,-0.44691664390900465
-0.5800000000000001,-0.97,-0.48309743781826814
-0.5700000000000001,-0.97,-0.5173716668466879
-0.56,-0.97,-0.5496040662706955
-0.55,-0.97,-0.5796674295353462
-0.54,-0.97,-0.6074431102804796
-0.53,-0.97,-0.6328214905836949
-0.52,-0.97,-0.6557024135722149
-0.51,-0.97,-0.6759955786963034
-0.5,-0.97,-0.6936208981042813
-0.49,-0.97,-0.7085088127126872
-0.48,-0.97,-0.7206005667242025
-0.47,-0.97,-0.7298484395099418
-0.45999999999999996,-0.97,-0.7362159339409698
-0.44999999999999996,-0.97,-0.7396779204258002
-0.43999999999999995,-0.97,-0.7402207360854072
-0.42999999999999994,-0.97,-0.7378422386743717
-0.42000000000000004,-0.97,-0.7325518150353436
-0.41000000000000003,-0.97,-0.7243703440534606
-0.4,-0.97,-0.7133301142569295
-0.39,-0.97,-0.6994746963889562
-0.38,-0.97,-0.6828587714539276
-0.37,-0.97,-0.6635479149164689
-0.36,-0.97,-0.6416183379050411
-0.35,-0.97,-0.6171565864414379
-0.33999999999999997,-0.97,-0.590259199883175
-0.32999999999999996,-0.97,-0.5610323299267508
-0.31999999999999995,-0.97,-0.5295913216753967
-0.30999999999999994,-0.97,-0.49606025842465007
-0.29999999999999993,-0.97,-0.4605714719622761
-0.29000000000000004,-0.97,-0.4232650203151578
-0.28,-0.97,-0.3842881350042494
-0.27,-0.97,-0.3437946399890284
-0.26,-0.97,-0.3019443445946013
-0.25,-0.97,-0.25890241281730886
-0.24,-0.97,-0.21483871149788797
-0.22999999999999998,-0.97,-0.16992713993465575
-0.21999999999999997,-0.97,-0.12434494358242718
-0.20999999999999996,-0.97,-0.07827201454567995
-0.19999999999999996,-0.97,-0.03189018162660284
-0.18999999999999995,-0.97,0.014617507270116332
-0.17999999999999994,-0.97,0.06106750754374403
-0.16999999999999993,-0.97,0.10727650226418708
-0.16000000000000003,-0.97,0.15306212564016553
-0.15000000000000002,-0.97,0.19824368273367565
-0.14,-0.97,0.24264286258035977
-0.13,-0.97,0.28608444190141824
-0.12,-0.97,0.32839697662984135
-0.10999999999999999,-0.97,0.3694134785218135
-0.09999999999999998,-0.97,0.4089720741830254
-0.08999999999999997,-0.97,0.44691664390900443
-0.07999999999999996,-0.97,0.48309743781826814
-0.06999999999999995,-0.97,0.5173716668466883
-0.05999999999999994,-0.97,0.5496040662706965
-0.04999999999999993,-0.97,0.5796674295353468
-0.040000000000000036,-0.97,0.6074431102804796
-0.030000000000000027,-0.97,0.6328214905836949
-0.020000000000000018,-0.97,0.6557024135722148
-0.010000000000000009,-0.97,0.6759955786963036
0.0,-0.97,0.6936208981042813
0.010000000000000009,-0.97,0.7085088127126868
0.020000000000000018,-0.97,0.7206005667242024
0.030000000000000027,-0.97,0.7298484395099417
0.040000000000000036,-0.97,0.7362159339409697
0.050000000000000044,-0.97,0.7396779204257999
0.06000000000000005,-0.97,0.7402207360854072
0.07000000000000006,-0.97,0.7378422386743717
0.08000000000000007,-0.97,0.7325518150353428
0.09000000000000008,-0.97,0.7243703440534601
0.10000000000000009,-0.97,0.713330114256929
0.1100000000000001,-0.97,0.6994746963889563
0.1200000000000001,-0.97,0.6828587714539278
0.13000000000000012,-0.97,0.6635479149164687
0.14000000000000012,-0.97,0.6416183379050414
0.15000000000000013,-0.97,0.6171565864414379
0.15999999999999992,-0.97,0.5902591998831753
0.16999999999999993,-0.97,0.5610323299267507
0.17999999999999994,-0.97,0.5295913216753966
0.18999999999999995,-0.97,0.49606025842464974
0.19999999999999996,-0.97,0.460571471962276
0.20999999999999996,-0.97,0.4232650203151579
0.21999999999999997,-0.97,0.38428813500424996
0.22999999999999998,-0.97,0.34379463998902854
0.24,-0.97,0.30194434459460145
0.25,-0.97,0.2589024128173092
0.26,-0.97,0.21483871149788808
0.27,-0.97,0.16992713993465586
0.28,-0.97,0.12434494358242738
0.29000000000000004,-0.97,0.07827201454568006
0.30000000000000004,-0.97,0.0318901816266031
0.31000000000000005,-0.97,-0.014617507270116029
0.32000000000000006,-0.97,-0.061067507543743946
0.33000000000000007,-0.97,-0.10727650226418703
0.3400000000000001,-0.97,-0.15306212564016536
0.3500000000000001,-0.97,-0.1982436827336756
0.3600000000000001,-0.97,-0.24264286258035944
0.3700000000000001,-0.97,-0.2860844419014183
0.3800000000000001,-0.97,-0.32839697662984135
0.3900000000000001,-0.97,-0.36941347852181344
0.40000000000000013,-0.97,-0.4089720741830255
0.4099999999999999,-0.97,-0.44691664390900476
0.41999999999999993,-0.97,-0.4830974378182681
0.42999999999999994,-0.97,-0.5173716668466881
0.43999999999999995,-0.97,-0.5496040662706958
0.44999999999999996,-0.97,-0.579667429535347
0.45999999999999996,-0.97,-0.6074431102804803
0.47,-0.97,-0.6328214905836949
0.48,-0.97,-0.6557024135722153
0.49,-0.97,-0.6759955786963034
0.5,-0.97,-0.6936208981042813
0.51,-0.97,-0.7085088127126868
0.52,-0.97,-0.7206005667242025
0.53,-0.97,-0.7298484395099414
0.54,-0.97,-0.7362159339409701
0.55,-0.97,-0.7396779204257999
0.56,-0.97,-0.7402207360854067
0.5700000000000001,-0.97,-0.7378422386743718
0.5800000000000001,-0.97,-0.732551815035343
0.5900000000000001,-0.97,-0.7243703440534601
0.6000000000000001,-0.97,-0.713330114256929
0.6100000000000001,-0.97,-0.6994746963889563
0.6200000000000001,-0.97,-0.682858771453928
0.6300000000000001,-0.97,-0.6635479149164694
0.6400000000000001,-0.97,-0.641618337905041
0.6500000000000001,-0.97,-0.6171565864414379
0.6600000000000001,-0.97,-0.590259199883175
0.6699999999999999,-0.97,-0.5610323299267507