TITLE = "Solution" 
VARIABLES = "x", "y", "sol" 
ZONE STRANDID=1, SOLUTIONTIME= 0.2500000000000001, I= 201, J =201, DATAPACKING=POINT 
-1.0,-1.0,0.9529795797125633
-0.99,-1.0,0.9510990921994787
-0.98,-1.0,0.9454650510853262
-0.97,-1.0,0.936099691356435
-0.96,-1.0,0.9230399738090289
-0.95,-1.0,0.90633743918185
-0.94,-1.0,0.8860580047484098
-0.9299999999999999,-1.0,0.8622817041716244
-0.92,-1.0,0.8351023716475127
-0.91,-1.0,0.8046272715844907
-0.9,-1.0,0.7709766752797587
-0.89,-1.0,0.7342833862634357
-0.88,-1.0,0.6946922161837008
-0.87,-1.0,0.652359413301373
-0.86,-1.0,0.6074520458494113
-0.85,-1.0,0.5601473426909241
-0.84,-1.0,0.5106319938778141
-0.83,-1.0,0.4591014138704359
-0.8200000000000001,-1.0,0.4057589703259962
-0.81,-1.0,0.35081518149932
-0.8,-1.0,0.2944868854234773
-0.79,-1.0,0.23699638414912838
-0.78,-1.0,0.17857056641989166
-0.77,-1.0,0.1194400122461273
-0.76,-1.0,0.059838082910978606
-0.75,-1.0,-3.469446951953614e-18
-0.74,-1.0,-0.05983808291097865
-0.73,-1.0,-0.1194400122461273
-0.72,-1.0,-0.17857056641989166
-0.71,-1.0,-0.23699638414912833
-0.7,-1.0,-0.29448688542347723
-0.69,-1.0,-0.35081518149932
-0.6799999999999999,-1.0,-0.40575897032599606
-0.6699999999999999,-1.0,-0.4591014138704361
-0.6599999999999999,-1.0,-0.5106319938778142
-0.6499999999999999,-1.0,-0.5601473426909244
-0.64,-1.0,-0.6074520458494117
-0.63,-1.0,-0.6523594133013737
-0.62,-1.0,-0.6946922161837011
-0.61,-1.0,-0.734283386263436
-0.6,-1.0,-0.770976675279759
-0.59,-1.0,-0.8046272715844909
-0.5800000000000001,-1.0,-0.8351023716475128
-0.5700000000000001,-1.0,-0.8622817041716249
-0.56,-1.0,-0.88605800474841
-0.55,-1.0,-0.9063374391818502
-0.54,-1.0,-0.9230399738090289
-0.53,-1.0,-0.936099691356435
-0.52,-1.0,-0.9454650510853265
-0.51,-1.0,-0.951099092199479
-0.5,-1.0,-0.9529795797125633
-0.49,-1.0,-0.9510990921994787
-0.48,-1.0,-0.9454650510853264
-0.47,-1.0,-0.936099691356435
-0.45999999999999996,-1.0,-0.9230399738090289
-0.44999999999999996,-1.0,-0.9063374391818497
-0.43999999999999995,-1.0,-0.8860580047484099
-0.42999999999999994,-1.0,-0.8622817041716249
-0.42000000000000004,-1.0,-0.8351023716475128
-0.41000000000000003,-1.0,-0.8046272715844907
-0.4,-1.0,-0.7709766752797584
-0.39,-1.0,-0.7342833862634357
-0.38,-1.0,-0.694692216183701
-0.37,-1.0,-0.6523594133013733
-0.36,-1.0,-0.6074520458494117
-0.35,-1.0,-0.560147342690924
-0.33999999999999997,-1.0,-0.5106319938778141
-0.32999999999999996,-1.0,-0.45910141387043585
-0.31999999999999995,-1.0,-0.40575897032599595
-0.30999999999999994,-1.0,-0.35081518149931984
-0.29999999999999993,-1.0,-0.29448688542347706
-0.29000000000000004,-1.0,-0.23699638414912816
-0.28,-1.0,-0.17857056641989155
-0.27,-1.0,-0.11944001224612719
-0.26,-1.0,-0.05983808291097852
-0.25,-1.0,1.0928757898653885e-16
-0.24,-1.0,0.05983808291097875
-0.22999999999999998,-1.0,0.11944001224612741
-0.21999999999999997,-1.0,0.17857056641989164
-0.20999999999999996,-1.0,0.2369963841491284
-0.19999999999999996,-1.0,0.2944868854234773
-0.18999999999999995,-1.0,0.35081518149932
-0.17999999999999994,-1.0,0.40575897032599617
-0.16999999999999993,-1.0,0.45910141387043607
-0.16000000000000003,-1.0,0.5106319938778144
-0.15000000000000002,-1.0,0.5601473426909243
-0.14,-1.0,0.6074520458494117
-0.13,-1.0,0.6523594133013733
-0.12,-1.0,0.6946922161837011
-0.10999999999999999,-1.0,0.7342833862634359
-0.09999999999999998,-1.0,0.7709766752797587
-0.08999999999999997,-1.0,0.8046272715844911
-0.07999999999999996,-1.0,0.8351023716475131
-0.06999999999999995,-1.0,0.8622817041716248
-0.05999999999999994,-1.0,0.88605800474841
-0.04999999999999993,-1.0,0.9063374391818502
-0.040000000000000036,-1.0,0.9230399738090288
-0.030000000000000027,-1.0,0.936099691356435
-0.020000000000000018,-1.0,0.9454650510853264
-0.010000000000000009,-1.0,0.951099092199479
0.0,-1.0,0.9529795797125633
0.010000000000000009,-1.0,0.9510990921994791
0.020000000000000018,-1.0,0.9454650510853264
0.030000000000000027,-1.0,0.936099691356435
0.040000000000000036,-1.0,0.9230399738090288
0.050000000000000044,-1.0,0.9063374391818502
0.06000000000000005,-1.0,0.8860580047484099
0.07000000000000006,-1.0,0.8622817041716246
0.08000000000000007,-1.0,0.8351023716475127
0.09000000000000008,-1.0,0.8046272715844909
0.10000000000000009,-1.0,0.7709766752797587
0.1100000000000001,-1.0,0.7342833862634357
0.1200000000000001,-1.0,0.694692216183701
0.13000000000000012,-1.0,0.6523594133013731
0.14000000000000012,-1.0,0.6074520458494115
0.15000000000000013,-1.0,0.5601473426909237
0.15999999999999992,-1.0,0.5106319938778137
0.16999999999999993,-1.0,0.4591014138704358
0.17999999999999994,-1.0,0.4057589703259957
0.18999999999999995,-1.0,0.35081518149931945
0.19999999999999996,-1.0,0.2944868854234769
0.20999999999999996,-1.0,0.23699638414912816
0.21999999999999997,-1.0,0.17857056641989144
0.22999999999999998,-1.0,0.11944001224612713
0.24,-1.0,0.05983808291097857
0.25,-1.0,-3.9898639947466563e-17
0.26,-1.0,-0.059838082910978634
0.27,-1.0,-0.11944001224612728
0.28,-1.0,-0.17857056641989166
0.29000000000000004,-1.0,-0.23699638414912833
0.30000000000000004,-1.0,-0.2944868854234771
0.31000000000000005,-1.0,-0.35081518149932
0.32000000000000006,-1.0,-0.4057589703259961
0.33000000000000007,-1.0,-0.4591014138704363
0.3400000000000001,-1.0,-0.5106319938778142
0.3500000000000001,-1.0,-0.5601473426909246
0.3600000000000001,-1.0,-0.607452045849412
0.3700000000000001,-1.0,-0.6523594133013736
0.3800000000000001,-1.0,-0.6946922161837011
0.3900000000000001,-1.0,-0.7342833862634361
0.40000000000000013,-1.0,-0.7709766752797589
0.4099999999999999,-1.0,-0.8046272715844909
0.41999999999999993,-1.0,-0.835102371647513
0.42999999999999994,-1.0,-0.8622817041716248
0.43999999999999995,-1.0,-0.8860580047484099
0.44999999999999996,-1.0,-0.90633743918185
0.45999999999999996,-1.0,-0.9230399738090288
0.47,-1.0,-0.9360996913564351
0.48,-1.0,-0.9454650510853262
0.49,-1.0,-0.9510990921994791
0.5,-1.0,-0.9529795797125633
0.51,-1.0,-0.9510990921994787
0.52,-1.0,-0.945465051085326
0.53,-1.0,-0.936099691356435
0.54,-1.0,-0.923039973809029
0.55,-1.0,-0.9063374391818502
0.56,-1.0,-0.8860580047484098
0.5700000000000001,-1.0,-0.8622817041716246
0.5800000000000001,-1.0,-0.8351023716475127
0.5900000000000001,-1.0,-0.8046272715844907
0.6000000000000001,-1.0,-0.7709766752797587
0.6100000000000001,-1.0,-0.7342833862634357
0.6200000000000001,-1.0,-0.6946922161837009
0.6300000000000001,-1.0,-0.6523594133013734
0.6400000000000001,-1.0,-0.6074520458494117
0.6500000000000001,-1.0,-0.5601473426909243
0.6600000000000001,-1.0,-0.5106319938778141
0.6699999999999999,-1.0,-0.45910141387043596
0.6799999999999999,-1.0,-0.40575897032599606
0.69,-1.0,-0.35081518149932
0.7,-1.0,-0.29448688542347734
0.71,-1.0,-0.23699638414912838
0.72,-1.0,-0.17857056641989177
0.73,-1.0,-0.11944001224612746
0.74,-1.0,-0.059838082910978696
0.75,-1.0,-1.2836953722228372e-16
0.76,-1.0,0.0598380829109785
0.77,-1.0,0.11944001224612717
0.78,-1.0,0.1785705664198915
0.79,-1.0,0.23699638414912824
0.8,-1.0,0.2944868854234771
0.81,-1.0,0.35081518149932006
0.8200000000000001,-1.0,0.40575897032599617
0.8300000000000001,-1.0,0.45910141387043607
0.8400000000000001,-1.0,0.5106319938778142
0.8500000000000001,-1.0,0.560147342690924
0.8600000000000001,-1.0,0.6074520458494118
0.8700000000000001,-1.0,0.6523594133013737
0.8800000000000001,-1.0,0.694692216183701
0.8900000000000001,-1.0,0.7342833862634363
0.9000000000000001,-1.0,0.7709766752797588
0.9100000000000001,-1.0,0.8046272715844909
0.9199999999999999,-1.0,0.835102371647513
0.9299999999999999,-1.0,0.8622817041716249
0.94,-1.0,0.8860580047484099
0.95,-1.0,0.9063374391818503
0.96,-1.0,0.9230399738090288
0.97,-1.0,0.9360996913564351
0.98,-1.0,0.9454650510853263
0.99,-1.0,0.9510990921994787
1.0,-1.0,0.9529795797125633

-1.0,-0.99,0.9510990921994787
-0.99,-0.99,0.9490369303698022
-0.98,-0.99,0.9432293533496875
-0.97,-0.99,0.933699280992403
-0.96,-0.99,0.9204843241396675
-0.95,-0.99,0.903636636188839
-0.94,-0.99,0.8832227072672828
-0.9299999999999999,-0.99,0.8593231018262159
-0.92,-0.99,0.8320321406896223
-0.91,-0.99,0.801457528813055
-0.9,-0.99,0.7677199302213777
-0.89,-0.99,0.7309524918029903
-0.88,-0.99,0.6913003178398853
-0.87,-0.99,0.6489198973473396
-0.86,-0.99,0.6039784864832656
-0.85,-0.99,0.5566534484645651
-0.84,-0.99,0.5071315535955452
-0.83,-0.99,0.4556082421708524
-0.8200000000000001,-0.99,0.40228685316191737
-0.81,-0.99,0.3473778217309336
-0.8,-0.99,0.29109784873940847
-0.79,-0.99,0.23366904552886575
-0.78,-0.99,0.175318057348853
-0.77,-0.99,0.11627516889168596
-0.76,-0.99,0.05677339546397514
-0.75,-0.99,-0.002952436618334827
-0.74,-0.99,-0.0626666167821522
-0.73,-0.99,-0.12213348043918433
-0.72,-0.99,-0.18111833904640268
-0.71,-0.99,-0.23938840631450312
-0.7,-0.99,-0.29671371690903986
-0.69,-0.99,-0.3528680340185397
-0.6799999999999999,-0.99,-0.40762974220783876
-0.6699999999999999,-0.99,-0.46078272203295806
-0.6599999999999999,-0.99,-0.5121172029658151
-0.6499999999999999,-0.99,-0.5614305912626608
-0.64,-0.99,-0.608528269509032
-0.63,-0.99,-0.6532243646857727
-0.62,-0.99,-0.6953424817249239
-0.61,-0.99,-0.7347163996604692
-0.6,-0.99,-0.7711907276265489
-0.59,-0.99,-0.8046215181142167
-0.5800000000000001,-0.99,-0.8348768350664932
-0.5700000000000001,-0.99,-0.8618372745697069
-0.56,-0.99,-0.8853964360861918
-0.55,-0.99,-0.9054613423685999
-0.54,-0.99,-0.9219528063986177
-0.53,-0.99,-0.9348057439019524
-0.52,-0.99,-0.9439694302062267
-0.51,-0.99,-0.9494077004280874
-0.5,-0.99,-0.9510990921994789
-0.49,-0.99,-0.9490369303698022
-0.48,-0.99,-0.9432293533496873
-0.47,-0.99,-0.933699280992403
-0.45999999999999996,-0.99,-0.9204843241396673
-0.44999999999999996,-0.99,-0.903636636188839
-0.43999999999999995,-0.99,-0.8832227072672832
-0.42999999999999994,-0.99,-0.859323101826216
-0.42000000000000004,-0.99,-0.8320321406896223
-0.41000000000000003,-0.99,-0.8014575288130545
-0.4,-0.99,-0.7677199302213777
-0.39,-0.99,-0.7309524918029907
-0.38,-0.99,-0.6913003178398855
-0.37,-0.99,-0.6489198973473402
-0.36,-0.99,-0.6039784864832654
-0.35,-0.99,-0.5566534484645651
-0.33999999999999997,-0.99,-0.507131553595545
-0.32999999999999996,-0.99,-0.455608242170852
-0.31999999999999995,-0.99,-0.40228685316191726
-0.30999999999999994,-0.99,-0.3473778217309334
-0.29999999999999993,-0.99,-0.29109784873940825
-0.29000000000000004,-0.99,-0.23366904552886558
-0.28,-0.99,-0.17531805734885292
-0.27,-0.99,-0.11627516889168588
-0.26,-0.99,-0.05677339546397502
-0.25,-0.99,0.0029524366183349485
-0.24,-0.99,0.0626666167821523
-0.22999999999999998,-0.99,0.12213348043918434
-0.21999999999999997,-0.99,0.18111833904640273
-0.20999999999999996,-0.99,0.2393884063145032
-0.19999999999999996,-0.99,0.2967137169090399
-0.18999999999999995,-0.99,0.35286803401853983
-0.17999999999999994,-0.99,0.40762974220783876
-0.16999999999999993,-0.99,0.4607827220329582
-0.16000000000000003,-0.99,0.5121172029658151
-0.15000000000000002,-0.99,0.5614305912626608
-0.14,-0.99,0.6085282695090317
-0.13,-0.99,0.6532243646857727
-0.12,-0.99,0.6953424817249236
-0.10999999999999999,-0.99,0.734716399660469
-0.09999999999999998,-0.99,0.7711907276265489
-0.08999999999999997,-0.99,0.8046215181142169
-0.07999999999999996,-0.99,0.834876835066493
-0.06999999999999995,-0.99,0.8618372745697068
-0.05999999999999994,-0.99,0.8853964360861919
-0.04999999999999993,-0.99,0.9054613423685997
-0.040000000000000036,-0.99,0.9219528063986178
-0.030000000000000027,-0.99,0.9348057439019521
-0.020000000000000018,-0.99,0.9439694302062267
-0.010000000000000009,-0.99,0.9494077004280875
0.0,-0.99,0.9510990921994791
0.010000000000000009,-0.99,0.9490369303698021
0.020000000000000018,-0.99,0.9432293533496874
0.030000000000000027,-0.99,0.933699280992403
0.040000000000000036,-0.99,0.9204843241396676
0.050000000000000044,-0.99,0.903636636188839
0.06000000000000005,-0.99,0.8832227072672829
0.07000000000000006,-0.99,0.8593231018262159
0.08000000000000007,-0.99,0.8320321406896226
0.09000000000000008,-0.99,0.8014575288130549
0.10000000000000009,-0.99,0.7677199302213777
0.1100000000000001,-0.99,0.7309524918029907
0.1200000000000001,-0.99,0.6913003178398854
0.13000000000000012,-0.99,0.6489198973473398
0.14000000000000012,-0.99,0.6039784864832654
0.15000000000000013,-0.99,0.5566534484645649
0.15999999999999992,-0.99,0.5071315535955452
0.16999999999999993,-0.99,0.45560824217085194
0.17999999999999994,-0.99,0.4022868531619169
0.18999999999999995,-0.99,0.3473778217309333
0.19999999999999996,-0.99,0.29109784873940814
0.20999999999999996,-0.99,0.23366904552886555
0.21999999999999997,-0.99,0.17531805734885278
0.22999999999999998,-0.99,0.11627516889168588
0.24,-0.99,0.05677339546397506
0.25,-0.99,-0.0029524366183348617
0.26,-0.99,-0.06266661678215218
0.27,-0.99,-0.12213348043918432
0.28,-0.99,-0.18111833904640262
0.29000000000000004,-0.99,-0.23938840631450306
0.30000000000000004,-0.99,-0.2967137169090399
0.31000000000000005,-0.99,-0.3528680340185398
0.32000000000000006,-0.99,-0.4076297422078389
0.33000000000000007,-0.99,-0.4607827220329581
0.3400000000000001,-0.99,-0.5121172029658153
0.3500000000000001,-0.99,-0.561430591262661
0.3600000000000001,-0.99,-0.608528269509032
0.3700000000000001,-0.99,-0.6532243646857728
0.3800000000000001,-0.99,-0.6953424817249239
0.3900000000000001,-0.99,-0.7347163996604691
0.40000000000000013,-0.99,-0.771190727626549
0.4099999999999999,-0.99,-0.8046215181142169
0.41999999999999993,-0.99,-0.8348768350664932
0.42999999999999994,-0.99,-0.8618372745697069
0.43999999999999995,-0.99,-0.8853964360861919
0.44999999999999996,-0.99,-0.9054613423685997
0.45999999999999996,-0.99,-0.9219528063986178
0.47,-0.99,-0.9348057439019521
0.48,-0.99,-0.9439694302062266
0.49,-0.99,-0.9494077004280874
0.5,-0.99,-0.9510990921994789
0.51,-0.99,-0.9490369303698019
0.52,-0.99,-0.9432293533496874
0.53,-0.99,-0.9336992809924031
0.54,-0.99,-0.9204843241396675
0.55,-0.99,-0.903636636188839
0.56,-0.99,-0.8832227072672831
0.5700000000000001,-0.99,-0.859323101826216
0.5800000000000001,-0.99,-0.8320321406896225
0.5900000000000001,-0.99,-0.8014575288130548
0.6000000000000001,-0.99,-0.7677199302213777
0.6100000000000001,-0.99,-0.7309524918029907
0.6200000000000001,-0.99,-0.6913003178398858
0.6300000000000001,-0.99,-0.64891989734734
0.6400000000000001,-0.99,-0.6039784864832656
0.6500000000000001,-0.99,-0.5566534484645651
0.6600000000000001,-0.99,-0.5071315535955452
0.6699999999999999,-0.99,-0.45560824217085216
0.6799999999999999,-0.99,-0.40228685316191737
0.69,-0.99,-0.3473778217309337
0.7,-0.99,-0.29109784873940847
0.71,-0.99,-0.23366904552886586
0.72,-0.99,-0.17531805734885317
0.73,-0.99,-0.11627516889168601
0.74,-0.99,-0.05677339546397528
0.75,-0.99,0.002952436618334702
0.76,-0.99,0.06266661678215205
0.77,-0.99,0.12213348043918416
0.78,-0.99,0.1811183390464025
0.79,-0.99,0.23938840631450295
0.8,-0.99,0.29671371690904
0.81,-0.99,0.35286803401853983
0.8200000000000001,-0.99,0.40762974220783865
0.8300000000000001,-0.99,0.460782722032958
0.8400000000000001,-0.99,0.5121172029658149
0.8500000000000001,-0.99,0.5614305912626608
0.8600000000000001,-0.99,0.6085282695090323
0.8700000000000001,-0.99,0.6532243646857726
0.8800000000000001,-0.99,0.695342481724924
0.8900000000000001,-0.99,0.7347163996604691
0.9000000000000001,-0.99,0.7711907276265488
0.9100000000000001,-0.99,0.804621518114217
0.9199999999999999,-0.99,0.8348768350664932
0.9299999999999999,-0.99,0.8618372745697066
0.94,-0.99,0.8853964360861919
0.95,-0.99,0.9054613423685995
0.96,-0.99,0.9219528063986178
0.97,-0.99,0.9348057439019521
0.98,-0.99,0.9439694302062264
0.99,-0.99,0.9494077004280874
1.0,-0.99,0.9510990921994787

-1.0,-0.98,0.9454650510853264
-0.99,-0.98,0.9432293533496874
-0.98,-0.98,0.9372711602768788
-0.97,-0.98,0.9276139861329199
-0.96,-0.98,0.9142959433722133
-0.95,-0.98,0.8973695922251002
-0.94,-0.98,0.8769017332666451
-0.9299999999999999,-0.98,0.8529731437852807
-0.92,-0.98,0.8256782589917582
-0.91,-0.98,0.7951247993265094
-0.9,-0.98,0.7614333453362865
-0.89,-0.98,0.7247368617978274
-0.88,-0.98,0.6851801729666294
-0.87,-0.98,0.6429193910217779
-0.86,-0.98,0.5981212999624934
-0.85,-0.98,0.5509626973878865
-0.84,-0.98,0.5016296967576033
-0.83,-0.98,0.45031699288702653
-0.8200000000000001,-0.98,0.39722709357578967
-0.81,-0.98,0.34256952040200583
-0.8,-0.98,0.28655998183632203
-0.79,-0.98,0.22941952193913312
-0.78,-0.98,0.17137364800066007
-0.77,-0.98,0.11265144056670084
-0.76,-0.98,0.05348464936237252
-0.75,-0.98,-0.005893221318177065
-0.74,-0.98,-0.06524783414654053
-0.73,-0.98,-0.12434494358242752
-0.72,-0.98,-0.1829513203337958
-0.71,-0.98,-0.24083567180631424
-0.7,-0.98,-0.2977695549095657
-0.69,-0.98,-0.35352827761755856
-0.6799999999999999,-0.98,-0.4078917857255017
-0.6699999999999999,-0.98,-0.4606455313032176
-0.6599999999999999,-0.98,-0.5115813194178047
-0.6499999999999999,-0.98,-0.5604981297839228
-0.64,-0.98,-0.6072029100990218
-0.63,-0.98,-0.6515113379325824
-0.62,-0.98,-0.6932485481625408
-0.61,-0.98,-0.7322498230880368
-0.6,-0.98,-0.7683612424949269
-0.59,-0.98,-0.8014402911085513
-0.5800000000000001,-0.98,-0.8313564210364107
-0.5700000000000001,-0.98,-0.85799156698106
-0.56,-0.98,-0.8812406121898968
-0.55,-0.98,-0.9010118033029593
-0.54,-0.98,-0.9172271124615233
-0.53,-0.98,-0.9298225452484092
-0.52,-0.98,-0.9387483932447133
-0.51,-0.98,-0.9439694302062266
-0.5,-0.98,-0.9454650510853264
-0.49,-0.98,-0.9432293533496873
-0.48,-0.98,-0.9372711602768788
-0.47,-0.98,-0.9276139861329197
-0.45999999999999996,-0.98,-0.9142959433722131
-0.44999999999999996,-0.98,-0.8973695922251006
-0.43999999999999995,-0.98,-0.876901733266645
-0.42999999999999994,-0.98,-0.8529731437852806
-0.42000000000000004,-0.98,-0.8256782589917577
-0.41000000000000003,-0.98,-0.7951247993265095
-0.4,-0.98,-0.7614333453362867
-0.39,-0.98,-0.7247368617978276
-0.38,-0.98,-0.6851801729666297
-0.37,-0.98,-0.6429193910217776
-0.36,-0.98,-0.5981212999624934
-0.35,-0.98,-0.5509626973878863
-0.33999999999999997,-0.98,-0.5016296967576028
-0.32999999999999996,-0.98,-0.4503169928870264
-0.31999999999999995,-0.98,-0.3972270935757895
-0.30999999999999994,-0.98,-0.34256952040200567
-0.29999999999999993,-0.98,-0.2865599818363219
-0.29000000000000004,-0.98,-0.22941952193913298
-0.28,-0.98,-0.17137364800065996
-0.27,-0.98,-0.1126514405667007
-0.26,-0.98,-0.05348464936237239
-0.25,-0.98,0.005893221318177176
-0.24,-0.98,0.06524783414654056
-0.22999999999999998,-0.98,0.12434494358242765
-0.21999999999999997,-0.98,0.18295132033379588
-0.20999999999999996,-0.98,0.24083567180631438
-0.19999999999999996,-0.98,0.2977695549095658
-0.18999999999999995,-0.98,0.35352827761755873
-0.17999999999999994,-0.98,0.40789178572550194
-0.16999999999999993,-0.98,0.4606455313032177
-0.16000000000000003,-0.98,0.5115813194178047
-0.15000000000000002,-0.98,0.5604981297839224
-0.14,-0.98,0.6072029100990217
-0.13,-0.98,0.6515113379325823
-0.12,-0.98,0.6932485481625406
-0.10999999999999999,-0.98,0.7322498230880365
-0.09999999999999998,-0.98,0.7683612424949272
-0.08999999999999997,-0.98,0.801440291108551
-0.07999999999999996,-0.98,0.8313564210364109
-0.06999999999999995,-0.98,0.85799156698106
-0.05999999999999994,-0.98,0.8812406121898965
-0.04999999999999993,-0.98,0.9010118033029595
-0.040000000000000036,-0.98,0.917227112461523
-0.030000000000000027,-0.98,0.9298225452484092
-0.020000000000000018,-0.98,0.9387483932447134
-0.010000000000000009,-0.98,0.9439694302062268
0.0,-0.98,0.9454650510853262
0.010000000000000009,-0.98,0.9432293533496875
0.020000000000000018,-0.98,0.9372711602768788
0.030000000000000027,-0.98,0.9276139861329199
0.040000000000000036,-0.98,0.9142959433722131
0.050000000000000044,-0.98,0.8973695922251005
0.06000000000000005,-0.98,0.876901733266645
0.07000000000000006,-0.98,0.8529731437852809
0.08000000000000007,-0.98,0.8256782589917581
0.09000000000000008,-0.98,0.7951247993265095
0.10000000000000009,-0.98,0.7614333453362867
0.1100000000000001,-0.98,0.7247368617978274
0.1200000000000001,-0.98,0.6851801729666297
0.13000000000000012,-0.98,0.6429193910217776
0.14000000000000012,-0.98,0.5981212999624933
0.15000000000000013,-0.98,0.5509626973878868
0.15999999999999992,-0.98,0.5016296967576029
0.16999999999999993,-0.98,0.4503169928870262
0.17999999999999994,-0.98,0.39722709357578945
0.18999999999999995,-0.98,0.3425695204020055
0.19999999999999996,-0.98,0.2865599818363219
0.20999999999999996,-0.98,0.22941952193913281
0.21999999999999997,-0.98,0.17137364800065996
0.22999999999999998,-0.98,0.11265144056670072
0.24,-0.98,0.05348464936237243
0.25,-0.98,-0.005893221318177103
0.26,-0.98,-0.06524783414654052
0.27,-0.98,-0.12434494358242748
0.28,-0.98,-0.1829513203337958
0.29000000000000004,-0.98,-0.2408356718063142
0.30000000000000004,-0.98,-0.2977695549095657
0.31000000000000005,-0.98,-0.35352827761755873
0.32000000000000006,-0.98,-0.4078917857255018
0.33000000000000007,-0.98,-0.46064553130321784
0.3400000000000001,-0.98,-0.5115813194178048
0.3500000000000001,-0.98,-0.5604981297839228
0.3600000000000001,-0.98,-0.6072029100990218
0.3700000000000001,-0.98,-0.6515113379325824
0.3800000000000001,-0.98,-0.6932485481625407
0.3900000000000001,-0.98,-0.7322498230880368
0.40000000000000013,-0.98,-0.7683612424949273
0.4099999999999999,-0.98,-0.8014402911085513
0.41999999999999993,-0.98,-0.8313564210364109
0.42999999999999994,-0.98,-0.8579915669810603
0.43999999999999995,-0.98,-0.8812406121898966
0.44999999999999996,-0.98,-0.9010118033029594
0.45999999999999996,-0.98,-0.917227112461523
0.47,-0.98,-0.929822545248409
0.48,-0.98,-0.9387483932447133
0.49,-0.98,-0.9439694302062266
0.5,-0.98,-0.9454650510853262
0.51,-0.98,-0.9432293533496874
0.52,-0.98,-0.9372711602768788
0.53,-0.98,-0.9276139861329199
0.54,-0.98,-0.9142959433722132
0.55,-0.98,-0.8973695922251006
0.56,-0.98,-0.8769017332666451
0.5700000000000001,-0.98,-0.8529731437852809
0.5800000000000001,-0.98,-0.8256782589917578
0.5900000000000001,-0.98,-0.7951247993265096
0.6000000000000001,-0.98,-0.7614333453362868
0.6100000000000001,-0.98,-0.7247368617978276
0.6200000000000001,-0.98,-0.6851801729666297
0.6300000000000001,-0.98,-0.6429193910217776
0.6400000000000001,-0.98,-0.5981212999624936
0.6500000000000001,-0.98,-0.5509626973878866
0.6600000000000001,-0.98,-0.5016296967576032
0.6699999999999999,-0.98,-0.4503169928870266
0.6799999999999999,-0.98,-0.3972270935757898
0.69,-0.98,-0.3425695204020057
0.7,-0.98,-0.2865599818363222
0.71,-0.98,-0.2294195219391333
0.72,-0.98,-0.17137364800066013
0.73,-0.98,-0.112651440566701
0.74,-0.98,-0.05348464936237262
0.75,-0.98,0.005893221318176923
0.76,-0.98,0.06524783414654038
0.77,-0.98,0.12434494358242738
0.78,-0.98,0.18295132033379566
0.79,-0.98,0.24083567180631427
0.8,-0.98,0.2977695549095657
0.81,-0.98,0.35352827761755845
0.8200000000000001,-0.98,0.40789178572550167
0.8300000000000001,-0.98,0.46064553130321745
0.8400000000000001,-0.98,0.5115813194178046
0.8500000000000001,-0.98,0.5604981297839229
0.8600000000000001,-0.98,0.6072029100990216
0.8700000000000001,-0.98,0.6515113379325825
0.8800000000000001,-0.98,0.6932485481625407
0.8900000000000001,-0.98,0.7322498230880364
0.9000000000000001,-0.98,0.7683612424949273
0.9100000000000001,-0.98,0.8014402911085512
0.9199999999999999,-0.98,0.8313564210364105
0.9299999999999999,-0.98,0.8579915669810603
0.94,-0.98,0.8812406121898965
0.95,-0.98,0.9010118033029595
0.96,-0.98,0.9172271124615232
0.97,-0.98,0.9298225452484088
0.98,-0.98,0.9387483932447133
0.99,-0.98,0.9439694302062265
1.0,-0.98,0.9454650510853264

-1.0,-0.97,0.9360996913564349
-0.99,-0.97,0.933699280992403
-0.98,-0.97,0.92761398613292
-0.97,-0.97,0.9178678226566892
-0.96,-0.97,0.9044992542183528
-0.95,-0.97,0.8875610404500194
-0.94,-0.97,0.8671200287430982
-0.9299999999999999,-0.97,0.8432568904321872
-0.92,-0.97,0.8160658024221676
-0.91,-0.97,0.7856540755149897
-0.9,-0.97,0.7521417309029591
-0.89,-0.97,0.7156610264999256
-0.88,-0.97,0.6763559349797199
-0.87,-0.97,0.6343815755817832
-0.86,-0.97,0.5899036019263987
-0.85,-0.97,0.5430975482555316
-0.84,-0.97,0.4941481366793679
-0.83,-0.97,0.44324854816254067
-0.8200000000000001,-0.97,0.39059966012711506
-0.81,-0.97,0.3364092536811783
-0.8,-0.97,0.28089119360173054
-0.79,-0.97,0.22426458430811644
-0.78,-0.97,0.16675290515698096
-0.77,-0.97,0.10858312847134666
-0.76,-0.97,0.049984823784548646
-0.75,-0.97,-0.008810748165833188
-0.74,-0.97,-0.0675715481184524
-0.73,-0.97,-0.12606567404115201
-0.72,-0.97,-0.18406227634233913
-0.71,-0.97,-0.24133246892885837
-0.7,-0.97,-0.297650232514833
-0.69,-0.97,-0.3527933066165277
-0.6799999999999999,-0.97,-0.4065440667129375
-0.6699999999999999,-0.97,-0.4586903831103482
-0.6599999999999999,-0.97,-0.5090264581213255
-0.6499999999999999,-0.97,-0.5573536382541656
-0.64,-0.97,-0.603481198207473
-0.63,-0.97,-0.6472270935757896
-0.62,-0.97,-0.6884186792956952
-0.61,-0.97,-0.7268933909969986
-0.6,-0.97,-0.7624993865700391
-0.59,-0.97,-0.795096145417121
-0.5800000000000001,-0.97,-0.8245550230231182
-0.5700000000000001,-0.97,-0.8507597586566007
-0.56,-0.97,-0.8736069341978276
-0.55,-0.97,-0.89300638228282
-0.54,-0.97,-0.908881542152751
-0.53,-0.97,-0.9211697618042842
-0.52,-0.97,-0.929822545248409
-0.51,-0.97,-0.9348057439019521
-0.5,-0.97,-0.936099691356435
-0.49,-0.97,-0.933699280992403
-0.48,-0.97,-0.9276139861329197
-0.47,-0.97,-0.917867822656689
-0.45999999999999996,-0.97,-0.9044992542183529
-0.44999999999999996,-0.97,-0.8875610404500192
-0.43999999999999995,-0.97,-0.867120028743098
-0.42999999999999994,-0.97,-0.8432568904321868
-0.42000000000000004,-0.97,-0.8160658024221678
-0.41000000000000003,-0.97,-0.7856540755149898
-0.4,-0.97,-0.7521417309029592
-0.39,-0.97,-0.7156610264999257
-0.38,-0.97,-0.6763559349797196
-0.37,-0.97,-0.634381575581783
-0.36,-0.97,-0.5899036019263986
-0.35,-0.97,-0.5430975482555311
-0.33999999999999997,-0.97,-0.49414813667936797
-0.32999999999999996,-0.97,-0.44324854816254056
-0.31999999999999995,-0.97,-0.3905996601271149
-0.30999999999999994,-0.97,-0.33640925368117813
-0.29999999999999993,-0.97,-0.2808911936017304
-0.29000000000000004,-0.97,-0.22426458430811635
-0.28,-0.97,-0.16675290515698082
-0.27,-0.97,-0.10858312847134648
-0.26,-0.97,-0.04998482378454851
-0.25,-0.97,0.008810748165833254
-0.24,-0.97,0.0675715481184525
-0.22999999999999998,-0.97,0.1260656740411521
-0.21999999999999997,-0.97,0.1840622763423393
-0.20999999999999996,-0.97,0.2413324689288585
-0.19999999999999996,-0.97,0.29765023251483314
-0.18999999999999995,-0.97,0.35279330661652786
-0.17999999999999994,-0.97,0.4065440667129377
-0.16999999999999993,-0.97,0.45869038311034827
-0.16000000000000003,-0.97,0.5090264581213252
-0.15000000000000002,-0.97,0.5573536382541655
-0.14,-0.97,0.603481198207473
-0.13,-0.97,0.6472270935757896
-0.12,-0.97,0.6884186792956951
-0.10999999999999999,-0.97,0.7268933909969988
-0.09999999999999998,-0.97,0.7624993865700387
-0.08999999999999997,-0.97,0.7950961454171211
-0.07999999999999996,-0.97,0.8245550230231178
-0.06999999999999995,-0.97,0.8507597586566004
-0.05999999999999994,-0.97,0.8736069341978276
-0.04999999999999993,-0.97,0.8930063822828198
-0.040000000000000036,-0.97,0.9088815421527509
-0.030000000000000027,-0.97,0.9211697618042843
-0.020000000000000018,-0.97,0.9298225452484093
-0.010000000000000009,-0.97,0.934805743901952
0.0,-0.97,0.9360996913564351
0.010000000000000009,-0.97,0.933699280992403
0.020000000000000018,-0.97,0.9276139861329199
0.030000000000000027,-0.97,0.917867822656689
0.040000000000000036,-0.97,0.9044992542183529
0.050000000000000044,-0.97,0.8875610404500192
0.06000000000000005,-0.97,0.8671200287430982
0.07000000000000006,-0.97,0.8432568904321872
0.08000000000000007,-0.97,0.8160658024221678
0.09000000000000008,-0.97,0.7856540755149898
0.10000000000000009,-0.97,0.7521417309029591
0.1100000000000001,-0.97,0.7156610264999258
0.1200000000000001,-0.97,0.6763559349797195
0.13000000000000012,-0.97,0.6343815755817831
0.14000000000000012,-0.97,0.589903601926399
0.15000000000000013,-0.97,0.5430975482555314
0.15999999999999992,-0.97,0.49414813667936763
0.16999999999999993,-0.97,0.44324854816254045
0.17999999999999994,-0.97,0.3905996601271148
0.18999999999999995,-0.97,0.336409253681178
0.19999999999999996,-0.97,0.2808911936017302
0.20999999999999996,-0.97,0.22426458430811624
0.21999999999999997,-0.97,0.1667529051569808
0.22999999999999998,-0.97,0.1085831284713465
0.24,-0.97,0.04998482378454854
0.25,-0.97,-0.008810748165833212
0.26,-0.97,-0.06757154811845238
0.27,-0.97,-0.126065674041152
0.28,-0.97,-0.18406227634233913
0.29000000000000004,-0.97,-0.24133246892885837
0.30000000000000004,-0.97,-0.29765023251483297
0.31000000000000005,-0.97,-0.3527933066165277
0.32000000000000006,-0.97,-0.4065440667129377
0.33000000000000007,-0.97,-0.4586903831103485
0.3400000000000001,-0.97,-0.5090264581213254
0.3500000000000001,-0.97,-0.5573536382541657
0.3600000000000001,-0.97,-0.6034811982074731
0.3700000000000001,-0.97,-0.6472270935757897
0.3800000000000001,-0.97,-0.6884186792956953
0.3900000000000001,-0.97,-0.7268933909969988
0.40000000000000013,-0.97,-0.762499386570039
0.4099999999999999,-0.97,-0.7950961454171213
0.41999999999999993,-0.97,-0.8245550230231182
0.42999999999999994,-0.97,-0.8507597586566004
0.43999999999999995,-0.97,-0.8736069341978278
0.44999999999999996,-0.97,-0.8930063822828199
0.45999999999999996,-0.97,-0.9088815421527507
0.47,-0.97,-0.9211697618042841
0.48,-0.97,-0.9298225452484092
0.49,-0.97,-0.9348057439019521
0.5,-0.97,-0.9360996913564349
0.51,-0.97,-0.933699280992403
0.52,-0.97,-0.92761398613292
0.53,-0.97,-0.9178678226566892
0.54,-0.97,-0.9044992542183529
0.55,-0.97,-0.8875610404500193
0.56,-0.97,-0.8671200287430982
0.5700000000000001,-0.97,-0.843256890432187
0.5800000000000001,-0.97,-0.8160658024221679
0.5900000000000001,-0.97,-0.7856540755149899
0.6000000000000001,-0.97,-0.7521417309029594
0.6100000000000001,-0.97,-0.7156610264999257
0.6200000000000001,-0.97,-0.6763559349797197
0.6300000000000001,-0.97,-0.6343815755817832
0.6400000000000001,-0.97,-0.5899036019263988
0.6500000000000001,-0.97,-0.5430975482555316
0.6600000000000001,-0.97,-0.49414813667936797
0.6699999999999999,-0.97,-0.44324854816254067
0.6799999999999999,-0.97,-0.39059966012711494
0.69,-0.97,-0.33640925368117836