TITLE = "Solution" 
VARIABLES = "x", "y", "sol" 
ZONE STRANDID=1, SOLUTIONTIME= 0.40000000000000024, I= 201, J =201, DATAPACKING=POINT 
-1.0,-1.0,0.27240884456609904
-0.99,-1.0,0.3017299743171852
-0.98,-1.0,0.32986031370695423
-0.97,-1.0,0.356688845137365
-0.96,-1.0,0.3821096886516509
-0.95,-1.0,0.4060225197941405
-0.94,-1.0,0.4283329655450474
-0.9299999999999999,-1.0,0.44895297676766555
-0.92,-1.0,0.46780117569808727
-0.91,-1.0,0.48480317710605625
-0.9,-1.0,0.49989188185949124
-0.89,-1.0,0.5130077417341041
-0.88,-1.0,0.5240989944230359
-0.87,-1.0,0.5331218678190348
-0.86,-1.0,0.5400407527629656
-0.85,-1.0,0.5448283435768924
-0.84,-1.0,0.5474657458271146
-0.83,-1.0,0.5479425508918655
-0.8200000000000001,-1.0,0.5462568770393859
-0.81,-1.0,0.5424153768542603
-0.8,-1.0,0.536433210982705
-0.79,-1.0,0.5283339883004234
-0.78,-1.0,0.5181496727391592
-0.77,-1.0,0.5059204571396623
-0.76,-1.0,0.4916946046289061
-0.75,-1.0,0.4755282581475768
-0.74,-1.0,0.4574852188795352
-0.73,-1.0,0.4376366944576918
-0.72,-1.0,0.4160610179400114
-0.71,-1.0,0.3928433386647201
-0.7,-1.0,0.3680752862047689
-0.69,-1.0,0.3418546087477702
-0.6799999999999999,-1.0,0.3142847873285589
-0.6699999999999999,-1.0,0.2854746274368232
-0.6599999999999999,-1.0,0.255537829611546
-0.6499999999999999,-1.0,0.2245925407169213
-0.64,-1.0,0.19276088767065885
-0.63,-1.0,0.16016849546483286
-0.62,-1.0,0.12694399138143247
-0.61,-1.0,0.09321849735924259
-0.6,-1.0,0.05912511251545629
-0.59,-1.0,0.024798387864265945
-0.5800000000000001,-1.0,-0.009626204694518924
-0.5700000000000001,-1.0,-0.04401280702116907
-0.56,-1.0,-0.07822571090604562
-0.55,-1.0,-0.11212989364790378
-0.54,-1.0,-0.14559155092680923
-0.53,-1.0,-0.17847862486865934
-0.52,-1.0,-0.21066132521728032
-0.51,-1.0,-0.24201264155727367
-0.5,-1.0,-0.27240884456609893
-0.49,-1.0,-0.30172997431718507
-0.48,-1.0,-0.32986031370695446
-0.47,-1.0,-0.35668884513736493
-0.45999999999999996,-1.0,-0.382109688651651
-0.44999999999999996,-1.0,-0.4060225197941403
-0.43999999999999995,-1.0,-0.42833296554504713
-0.42999999999999994,-1.0,-0.4489529767676656
-0.42000000000000004,-1.0,-0.4678011756980872
-0.41000000000000003,-1.0,-0.4848031771060562
-0.4,-1.0,-0.4998918818594914
-0.39,-1.0,-0.5130077417341041
-0.38,-1.0,-0.5240989944230356
-0.37,-1.0,-0.5331218678190349
-0.36,-1.0,-0.5400407527629658
-0.35,-1.0,-0.5448283435768924
-0.33999999999999997,-1.0,-0.5474657458271149
-0.32999999999999996,-1.0,-0.5479425508918658
-0.31999999999999995,-1.0,-0.5462568770393861
-0.30999999999999994,-1.0,-0.5424153768542603
-0.29999999999999993,-1.0,-0.5364332109827052
-0.29000000000000004,-1.0,-0.5283339883004234
-0.28,-1.0,-0.5181496727391597
-0.27,-1.0,-0.5059204571396623
-0.26,-1.0,-0.491694604628906
-0.25,-1.0,-0.47552825814757665
-0.24,-1.0,-0.4574852188795355
-0.22999999999999998,-1.0,-0.43763669445769193
-0.21999999999999997,-1.0,-0.4160610179400114
-0.20999999999999996,-1.0,-0.3928433386647203
-0.19999999999999996,-1.0,-0.36807528620476876
-0.18999999999999995,-1.0,-0.34185460874777024
-0.17999999999999994,-1.0,-0.3142847873285588
-0.16999999999999993,-1.0,-0.28547462743682334
-0.16000000000000003,-1.0,-0.255537829611546
-0.15000000000000002,-1.0,-0.22459254071692128
-0.14,-1.0,-0.1927608876706587
-0.13,-1.0,-0.16016849546483286
-0.12,-1.0,-0.12694399138143242
-0.10999999999999999,-1.0,-0.09321849735924259
-0.09999999999999998,-1.0,-0.0591251125154562
-0.08999999999999997,-1.0,-0.024798387864265886
-0.07999999999999996,-1.0,0.009626204694518945
-0.06999999999999995,-1.0,0.04401280702116914
-0.05999999999999994,-1.0,0.07822571090604559
-0.04999999999999993,-1.0,0.1121298936479038
-0.040000000000000036,-1.0,0.14559155092680934
-0.030000000000000027,-1.0,0.17847862486865934
-0.020000000000000018,-1.0,0.2106613252172803
-0.010000000000000009,-1.0,0.24201264155727348
0.0,-1.0,0.27240884456609893
0.010000000000000009,-1.0,0.3017299743171852
0.020000000000000018,-1.0,0.3298603137069544
0.030000000000000027,-1.0,0.35668884513736465
0.040000000000000036,-1.0,0.38210968865165085
0.050000000000000044,-1.0,0.4060225197941404
0.06000000000000005,-1.0,0.4283329655450472
0.07000000000000006,-1.0,0.4489529767676656
0.08000000000000007,-1.0,0.467801175698087
0.09000000000000008,-1.0,0.48480317710605625
0.10000000000000009,-1.0,0.49989188185949124
0.1100000000000001,-1.0,0.5130077417341039
0.1200000000000001,-1.0,0.5240989944230359
0.13000000000000012,-1.0,0.533121867819035
0.14000000000000012,-1.0,0.5400407527629656
0.15000000000000013,-1.0,0.5448283435768924
0.15999999999999992,-1.0,0.5474657458271148
0.16999999999999993,-1.0,0.5479425508918657
0.17999999999999994,-1.0,0.5462568770393861
0.18999999999999995,-1.0,0.5424153768542601
0.19999999999999996,-1.0,0.5364332109827051
0.20999999999999996,-1.0,0.5283339883004234
0.21999999999999997,-1.0,0.5181496727391594
0.22999999999999998,-1.0,0.5059204571396625
0.24,-1.0,0.49169460462890613
0.25,-1.0,0.47552825814757704
0.26,-1.0,0.4574852188795357
0.27,-1.0,0.43763669445769193
0.28,-1.0,0.41606101794001166
0.29000000000000004,-1.0,0.39284333866472015
0.30000000000000004,-1.0,0.3680752862047688
0.31000000000000005,-1.0,0.34185460874777024
0.32000000000000006,-1.0,0.3142847873285588
0.33000000000000007,-1.0,0.28547462743682317
0.3400000000000001,-1.0,0.2555378296115457
0.3500000000000001,-1.0,0.2245925407169211
0.3600000000000001,-1.0,0.19276088767065852
0.3700000000000001,-1.0,0.16016849546483286
0.3800000000000001,-1.0,0.12694399138143236
0.3900000000000001,-1.0,0.09321849735924251
0.40000000000000013,-1.0,0.05912511251545622
0.4099999999999999,-1.0,0.02479838786426587
0.41999999999999993,-1.0,-0.009626204694518947
0.42999999999999994,-1.0,-0.044012807021169095
0.43999999999999995,-1.0,-0.07822571090604552
0.44999999999999996,-1.0,-0.11212989364790368
0.45999999999999996,-1.0,-0.1455915509268093
0.47,-1.0,-0.17847862486865934
0.48,-1.0,-0.21066132521728032
0.49,-1.0,-0.24201264155727364
0.5,-1.0,-0.27240884456609926
0.51,-1.0,-0.3017299743171852
0.52,-1.0,-0.32986031370695446
0.53,-1.0,-0.356688845137365
0.54,-1.0,-0.38210968865165107
0.55,-1.0,-0.40602251979414056
0.56,-1.0,-0.42833296554504724
0.5700000000000001,-1.0,-0.44895297676766555
0.5800000000000001,-1.0,-0.4678011756980872
0.5900000000000001,-1.0,-0.48480317710605597
0.6000000000000001,-1.0,-0.4998918818594914
0.6100000000000001,-1.0,-0.5130077417341043
0.6200000000000001,-1.0,-0.524098994423036
0.6300000000000001,-1.0,-0.5331218678190348
0.6400000000000001,-1.0,-0.5400407527629655
0.6500000000000001,-1.0,-0.5448283435768922
0.6600000000000001,-1.0,-0.547465745827115
0.6699999999999999,-1.0,-0.5479425508918655
0.6799999999999999,-1.0,-0.5462568770393861
0.69,-1.0,-0.5424153768542606
0.7,-1.0,-0.536433210982705
0.71,-1.0,-0.5283339883004234
0.72,-1.0,-0.5181496727391592
0.73,-1.0,-0.5059204571396624
0.74,-1.0,-0.491694604628906
0.75,-1.0,-0.47552825814757665
0.76,-1.0,-0.45748521887953536
0.77,-1.0,-0.43763669445769204
0.78,-1.0,-0.4160610179400115
0.79,-1.0,-0.39284333866472004
0.8,-1.0,-0.3680752862047688
0.81,-1.0,-0.34185460874777013
0.8200000000000001,-1.0,-0.3142847873285589
0.8300000000000001,-1.0,-0.2854746274368233
0.8400000000000001,-1.0,-0.25553782961154603
0.8500000000000001,-1.0,-0.22459254071692145
0.8600000000000001,-1.0,-0.19276088767065877
0.8700000000000001,-1.0,-0.16016849546483303
0.8800000000000001,-1.0,-0.12694399138143247
0.8900000000000001,-1.0,-0.09321849735924267
0.9000000000000001,-1.0,-0.059125112515456366
0.9100000000000001,-1.0,-0.02479838786426601
0.9199999999999999,-1.0,0.009626204694518827
0.9299999999999999,-1.0,0.04401280702116901
0.94,-1.0,0.0782257109060455
0.95,-1.0,0.11212989364790364
0.96,-1.0,0.14559155092680923
0.97,-1.0,0.17847862486865929
0.98,-1.0,0.2106613252172802
0.99,-1.0,0.24201264155727353
1.0,-1.0,0.27240884456609904

-1.0,-0.99,0.3017299743171852
-0.99,-0.99,0.33322668446071035
-0.98,-0.99,0.36340830111746053
-0.97,-0.99,0.3921557112351599
-0.96,-0.99,0.4193554619195171
-0.95,-0.99,0.44490020818096443
-0.94,-0.99,0.4686891365762924
-0.9299999999999999,-0.99,0.49062836307325297
-0.92,-0.99,0.5106313035679408
-0.91,-0.99,0.5286190155926985
-0.9,-0.99,0.5445205098659678
-0.89,-0.99,0.558273030454554
-0.88,-0.99,0.5698223024426228
-0.87,-0.99,0.5791227461299979
-0.86,-0.99,0.5861376569144137
-0.85,-0.99,0.5908393501478117
-0.84,-0.99,0.593209270395
-0.83,-0.99,0.5932380646634754
-0.8200000000000001,-0.99,0.590925619315416
-0.81,-0.99,0.586281060516154
-0.8,-0.99,0.5793227182173732
-0.79,-0.99,0.570078053817163
-0.78,-0.99,0.5585835517824255
-0.77,-0.99,0.5448845756613534
-0.76,-0.99,0.5290351890542291
-0.75,-0.99,0.5110979422490958
-0.74,-0.99,0.4911436253643442
-0.73,-0.99,0.4692509889724586
-0.72,-0.99,0.44550643330748335
-0.71,-0.99,0.4200036672827726
-0.7,-0.99,0.3928433386647201
-0.69,-0.99,0.3641326368620078
-0.6799999999999999,-0.99,0.3339848698979787
-0.6699999999999999,-0.99,0.30251901723563557
-0.6599999999999999,-0.99,0.2698592602200557
-0.6499999999999999,-0.99,0.23613449199135622
-0.64,-0.99,0.20147780880235427
-0.63,-0.99,0.1660259847484648
-0.62,-0.99,0.12991893198283064
-0.61,-0.99,0.0932991485469744
-0.6,-0.99,0.05631115599612965
-0.59,-0.99,0.01910092903868826
-0.5800000000000001,-0.99,-0.018184680559284384
-0.5700000000000001,-0.99,-0.0553985235308799
-0.56,-0.99,-0.09239373383927693
-0.55,-0.99,-0.12902430829089212
-0.54,-0.99,-0.16514568274328278
-0.53,-0.99,-0.20061530263377128
-0.52,-0.99,-0.23529318557717807
-0.51,-0.99,-0.2690424738123429
-0.5,-0.99,-0.30172997431718507
-0.49,-0.99,-0.3332266844607106
-0.48,-0.99,-0.3634083011174605
-0.47,-0.99,-0.3921557112351601
-0.45999999999999996,-0.99,-0.41935546191951684
-0.44999999999999996,-0.99,-0.44490020818096426
-0.43999999999999995,-0.99,-0.4686891365762925
-0.42999999999999994,-0.99,-0.49062836307325297
-0.42000000000000004,-0.99,-0.5106313035679407
-0.41000000000000003,-0.99,-0.5286190155926986
-0.4,-0.99,-0.5445205098659678
-0.39,-0.99,-0.5582730304545538
-0.38,-0.99,-0.569822302442623
-0.37,-0.99,-0.5791227461299981
-0.36,-0.99,-0.5861376569144139
-0.35,-0.99,-0.5908393501478123
-0.33999999999999997,-0.99,-0.5932092703950003
-0.32999999999999996,-0.99,-0.5932380646634757
-0.31999999999999995,-0.99,-0.5909256193154159
-0.30999999999999994,-0.99,-0.5862810605161541
-0.29999999999999993,-0.99,-0.5793227182173732
-0.29000000000000004,-0.99,-0.5700780538171634
-0.28,-0.99,-0.5585835517824256
-0.27,-0.99,-0.5448845756613532
-0.26,-0.99,-0.5290351890542291
-0.25,-0.99,-0.511097942249096
-0.24,-0.99,-0.4911436253643443
-0.22999999999999998,-0.99,-0.46925098897245854
-0.21999999999999997,-0.99,-0.44550643330748363
-0.20999999999999996,-0.99,-0.42000366728277244
-0.19999999999999996,-0.99,-0.3928433386647202
-0.18999999999999995,-0.99,-0.3641326368620077
-0.17999999999999994,-0.99,-0.3339848698979788
-0.16999999999999993,-0.99,-0.30251901723563557
-0.16000000000000003,-0.99,-0.2698592602200557
-0.15000000000000002,-0.99,-0.23613449199135605
-0.14,-0.99,-0.20147780880235425
-0.13,-0.99,-0.16602598474846478
-0.12,-0.99,-0.1299189319828306
-0.10999999999999999,-0.99,-0.0932991485469743
-0.09999999999999998,-0.99,-0.05631115599612959
-0.08999999999999997,-0.99,-0.019100929038688222
-0.07999999999999996,-0.99,0.018184680559284468
-0.06999999999999995,-0.99,0.05539852353087991
-0.05999999999999994,-0.99,0.09239373383927695
-0.04999999999999993,-0.99,0.12902430829089223
-0.040000000000000036,-0.99,0.16514568274328278
-0.030000000000000027,-0.99,0.20061530263377128
-0.020000000000000018,-0.99,0.23529318557717793
-0.010000000000000009,-0.99,0.2690424738123429
0.0,-0.99,0.3017299743171852
0.010000000000000009,-0.99,0.3332266844607105
0.020000000000000018,-0.99,0.36340830111746025
0.030000000000000027,-0.99,0.3921557112351599
0.040000000000000036,-0.99,0.41935546191951695
0.050000000000000044,-0.99,0.44490020818096426
0.06000000000000005,-0.99,0.46868913657629235
0.07000000000000006,-0.99,0.4906283630732526
0.08000000000000007,-0.99,0.5106313035679408
0.09000000000000008,-0.99,0.5286190155926985
0.10000000000000009,-0.99,0.5445205098659676
0.1100000000000001,-0.99,0.558273030454554
0.1200000000000001,-0.99,0.5698223024426232
0.13000000000000012,-0.99,0.579122746129998
0.14000000000000012,-0.99,0.5861376569144137
0.15000000000000013,-0.99,0.5908393501478121
0.15999999999999992,-0.99,0.5932092703949999
0.16999999999999993,-0.99,0.5932380646634756
0.17999999999999994,-0.99,0.5909256193154157
0.18999999999999995,-0.99,0.5862810605161539
0.19999999999999996,-0.99,0.5793227182173732
0.20999999999999996,-0.99,0.570078053817163
0.21999999999999997,-0.99,0.5585835517824256
0.22999999999999998,-0.99,0.5448845756613534
0.24,-0.99,0.5290351890542295
0.25,-0.99,0.5110979422490963
0.26,-0.99,0.4911436253643443
0.27,-0.99,0.46925098897245887
0.28,-0.99,0.44550643330748346
0.29000000000000004,-0.99,0.42000366728277255
0.30000000000000004,-0.99,0.3928433386647202
0.31000000000000005,-0.99,0.3641326368620077
0.32000000000000006,-0.99,0.33398486989797865
0.33000000000000007,-0.99,0.3025190172356353
0.3400000000000001,-0.99,0.2698592602200556
0.3500000000000001,-0.99,0.2361344919913559
0.3600000000000001,-0.99,0.20147780880235422
0.3700000000000001,-0.99,0.1660259847484647
0.3800000000000001,-0.99,0.1299189319828305
0.3900000000000001,-0.99,0.09329914854697428
0.40000000000000013,-0.99,0.05631115599612954
0.4099999999999999,-0.99,0.019100929038688205
0.41999999999999993,-0.99,-0.018184680559284426
0.42999999999999994,-0.99,-0.05539852353087984
0.43999999999999995,-0.99,-0.09239373383927685
0.44999999999999996,-0.99,-0.12902430829089223
0.45999999999999996,-0.99,-0.16514568274328278
0.47,-0.99,-0.2006153026337713
0.48,-0.99,-0.23529318557717804
0.49,-0.99,-0.26904247381234314
0.5,-0.99,-0.30172997431718507
0.51,-0.99,-0.33322668446071046
0.52,-0.99,-0.3634083011174606
0.53,-0.99,-0.39215571123516013
0.54,-0.99,-0.4193554619195171
0.55,-0.99,-0.4449002081809644
0.56,-0.99,-0.4686891365762924
0.5700000000000001,-0.99,-0.4906283630732529
0.5800000000000001,-0.99,-0.5106313035679406
0.5900000000000001,-0.99,-0.5286190155926986
0.6000000000000001,-0.99,-0.544520509865968
0.6100000000000001,-0.99,-0.558273030454554
0.6200000000000001,-0.99,-0.569822302442623
0.6300000000000001,-0.99,-0.5791227461299979
0.6400000000000001,-0.99,-0.5861376569144136
0.6500000000000001,-0.99,-0.5908393501478124
0.6600000000000001,-0.99,-0.5932092703949999
0.6699999999999999,-0.99,-0.5932380646634757
0.6799999999999999,-0.99,-0.5909256193154161
0.69,-0.99,-0.5862810605161539
0.7,-0.99,-0.5793227182173734
0.71,-0.99,-0.570078053817163
0.72,-0.99,-0.5585835517824256
0.73,-0.99,-0.5448845756613532
0.74,-0.99,-0.5290351890542291
0.75,-0.99,-0.5110979422490959
0.76,-0.99,-0.49114362536434447
0.77,-0.99,-0.4692509889724586
0.78,-0.99,-0.44550643330748335
0.79,-0.99,-0.42000366728277255
0.8,-0.99,-0.3928433386647201
0.81,-0.99,-0.3641326368620078
0.8200000000000001,-0.99,-0.3339848698979787
0.8300000000000001,-0.99,-0.30251901723563557
0.8400000000000001,-0.99,-0.2698592602200559
0.8500000000000001,-0.99,-0.23613449199135605
0.8600000000000001,-0.99,-0.20147780880235439
0.8700000000000001,-0.99,-0.16602598474846483
0.8800000000000001,-0.99,-0.12991893198283075
0.8900000000000001,-0.99,-0.09329914854697448
0.9000000000000001,-0.99,-0.056311155996129736
0.9100000000000001,-0.99,-0.019100929038688354
0.9199999999999999,-0.99,0.01818468055928433
0.9299999999999999,-0.99,0.05539852353087979
0.94,-0.99,0.09239373383927679
0.95,-0.99,0.1290243082908921
0.96,-0.99,0.16514568274328267
0.97,-0.99,0.20061530263377114
0.98,-0.99,0.235293185577178
0.99,-0.99,0.269042473812343
1.0,-0.99,0.3017299743171852

-1.0,-0.98,0.32986031370695434
-0.99,-0.98,0.3634083011174604
-0.98,-0.98,0.39552208198891603
-0.97,-0.98,0.4260749178996126
-0.96,-0.98,0.4549462307644735
-0.95,-0.98,0.48202207870166913
-0.94,-0.98,0.50719560570917
-0.9299999999999999,-0.98,0.5303674633765677
-0.92,-0.98,0.5514462029678643
-0.91,-0.98,0.5703486363278525
-0.9,-0.98,0.5870001641877611
-0.89,-0.98,0.6013350705744864
-0.88,-0.98,0.6132967821615161
-0.87,-0.98,0.6228380915380016
-0.86,-0.98,0.6299213435148442
-0.85,-0.98,0.6345185837325216
-0.84,-0.98,0.6366116689841728
-0.83,-0.98,0.6361923388185504
-0.8200000000000001,-0.98,0.6332622481402437
-0.81,-0.98,0.6278329606785288
-0.8,-0.98,0.6199259033506119
-0.79,-0.98,0.6095722816993754
-0.78,-0.98,0.5968129567393572
-0.77,-0.98,0.5816982836969926
-0.76,-0.98,0.564287913281543
-0.75,-0.98,0.5446505562709966
-0.74,-0.98,0.5228637123420192
-0.73,-0.98,0.4990133642141357
-0.72,-0.98,0.47319363831521977
-0.71,-0.98,0.44550643330748335
-0.7,-0.98,0.4160610179400115
-0.69,-0.98,0.38497359981492874
-0.6799999999999999,-0.98,0.35236686676908446
-0.6699999999999999,-0.98,0.3183695026812111
-0.6599999999999999,-0.98,0.2831156796154459
-0.6499999999999999,-0.98,0.2467445283054887
-0.64,-0.98,0.20939958906916212
-0.63,-0.98,0.17122824532035202
-0.62,-0.98,0.13238114191400677
-0.61,-0.98,0.09301159061971771
-0.6,-0.98,0.05327496507020636
-0.59,-0.98,0.013328087572579335
-0.5800000000000001,-0.98,-0.02667138979767271
-0.5700000000000001,-0.98,-0.06656560737739223
-0.56,-0.98,-0.10619712091572646
-0.55,-0.98,-0.14540952293465592
-0.54,-0.98,-0.1840480599978542
-0.53,-0.98,-0.22196024345180146
-0.52,-0.98,-0.25899645122883386
-0.51,-0.98,-0.2950105183370896
-0.5,-0.98,-0.32986031370695446
-0.49,-0.98,-0.3634083011174605
-0.48,-0.98,-0.3955220819889162
-0.47,-0.98,-0.4260749178996124
-0.45999999999999996,-0.98,-0.4549462307644734
-0.44999999999999996,-0.98,-0.482022078701669
-0.43999999999999995,-0.98,-0.50719560570917
-0.42999999999999994,-0.98,-0.5303674633765676
-0.42000000000000004,-0.98,-0.5514462029678644
-0.41000000000000003,-0.98,-0.5703486363278525
-0.4,-0.98,-0.5870001641877611
-0.39,-0.98,-0.6013350705744865
-0.38,-0.98,-0.6132967821615161
-0.37,-0.98,-0.6228380915380018
-0.36,-0.98,-0.6299213435148445
-0.35,-0.98,-0.6345185837325218
-0.33999999999999997,-0.98,-0.6366116689841731
-0.32999999999999996,-0.98,-0.6361923388185502
-0.31999999999999995,-0.98,-0.6332622481402438
-0.30999999999999994,-0.98,-0.6278329606785289
-0.29999999999999993,-0.98,-0.6199259033506122
-0.29000000000000004,-0.98,-0.6095722816993755
-0.28,-0.98,-0.596812956739357
-0.27,-0.98,-0.5816982836969923
-0.26,-0.98,-0.5642879132815433
-0.25,-0.98,-0.5446505562709966
-0.24,-0.98,-0.522863712342019
-0.22999999999999998,-0.98,-0.499013364214136
-0.21999999999999997,-0.98,-0.47319363831521966
-0.20999999999999996,-0.98,-0.4455064333074835
-0.19999999999999996,-0.98,-0.4160610179400115
-0.18999999999999995,-0.98,-0.3849735998149287
-0.17999999999999994,-0.98,-0.35236686676908446
-0.16999999999999993,-0.98,-0.31836950268121117
-0.16000000000000003,-0.98,-0.2831156796154457
-0.15000000000000002,-0.98,-0.24674452830548865
-0.14,-0.98,-0.20939958906916217
-0.13,-0.98,-0.17122824532035202
-0.12,-0.98,-0.13238114191400668
-0.10999999999999999,-0.98,-0.09301159061971762
-0.09999999999999998,-0.98,-0.05327496507020631
-0.08999999999999997,-0.98,-0.013328087572579226
-0.07999999999999996,-0.98,0.026671389797672744
-0.06999999999999995,-0.98,0.06656560737739228
-0.05999999999999994,-0.98,0.10619712091572656
-0.04999999999999993,-0.98,0.14540952293465592
-0.040000000000000036,-0.98,0.1840480599978542
-0.030000000000000027,-0.98,0.22196024345180135
-0.020000000000000018,-0.98,0.25899645122883386
-0.010000000000000009,-0.98,0.2950105183370897
0.0,-0.98,0.32986031370695446
0.010000000000000009,-0.98,0.36340830111746025
0.020000000000000018,-0.98,0.39552208198891603
0.030000000000000027,-0.98,0.42607491789961255
0.040000000000000036,-0.98,0.4549462307644733
0.050000000000000044,-0.98,0.4820220787016688
0.06000000000000005,-0.98,0.5071956057091697
0.07000000000000006,-0.98,0.5303674633765678
0.08000000000000007,-0.98,0.5514462029678642
0.09000000000000008,-0.98,0.5703486363278523
0.10000000000000009,-0.98,0.5870001641877611
0.1100000000000001,-0.98,0.6013350705744868
0.1200000000000001,-0.98,0.613296782161516
0.13000000000000012,-0.98,0.6228380915380018
0.14000000000000012,-0.98,0.6299213435148444
0.15000000000000013,-0.98,0.6345185837325213
0.15999999999999992,-0.98,0.636611668984173
0.16999999999999993,-0.98,0.6361923388185501
0.17999999999999994,-0.98,0.6332622481402436
0.18999999999999995,-0.98,0.6278329606785288
0.19999999999999996,-0.98,0.6199259033506119
0.20999999999999996,-0.98,0.6095722816993755
0.21999999999999997,-0.98,0.5968129567393572
0.22999999999999998,-0.98,0.5816982836969928
0.24,-0.98,0.5642879132815435
0.25,-0.98,0.5446505562709967
0.26,-0.98,0.5228637123420194
0.27,-0.98,0.4990133642141359
0.28,-0.98,0.4731936383152198
0.29000000000000004,-0.98,0.4455064333074835
0.30000000000000004,-0.98,0.4160610179400115
0.31000000000000005,-0.98,0.3849735998149287
0.32000000000000006,-0.98,0.35236686676908413
0.33000000000000007,-0.98,0.318369502681211
0.3400000000000001,-0.98,0.2831156796154455
0.3500000000000001,-0.98,0.2467445283054886
0.3600000000000001,-0.98,0.209399589069162
0.3700000000000001,-0.98,0.17122824532035189
0.3800000000000001,-0.98,0.13238114191400663
0.3900000000000001,-0.98,0.09301159061971753
0.40000000000000013,-0.98,0.05327496507020627
0.4099999999999999,-0.98,0.013328087572579268
0.41999999999999993,-0.98,-0.02667138979767269
0.42999999999999994,-0.98,-0.06656560737739219
0.43999999999999995,-0.98,-0.1061971209157265
0.44999999999999996,-0.98,-0.14540952293465592
0.45999999999999996,-0.98,-0.1840480599978542
0.47,-0.98,-0.22196024345180146
0.48,-0.98,-0.2589964512288341
0.49,-0.98,-0.2950105183370895
0.5,-0.98,-0.32986031370695446
0.51,-0.98,-0.3634083011174606
0.52,-0.98,-0.39552208198891614
0.53,-0.98,-0.4260749178996127
0.54,-0.98,-0.45494623076447344
0.55,-0.98,-0.482022078701669
0.56,-0.98,-0.50719560570917
0.5700000000000001,-0.98,-0.5303674633765675
0.5800000000000001,-0.98,-0.5514462029678642
0.5900000000000001,-0.98,-0.5703486363278527
0.6000000000000001,-0.98,-0.5870001641877614
0.6100000000000001,-0.98,-0.6013350705744865
0.6200000000000001,-0.98,-0.6132967821615158
0.6300000000000001,-0.98,-0.6228380915380014
0.6400000000000001,-0.98,-0.6299213435148446
0.6500000000000001,-0.98,-0.6345185837325213
0.6600000000000001,-0.98,-0.6366116689841731
0.6699999999999999,-0.98,-0.6361923388185504
0.6799999999999999,-0.98,-0.6332622481402437
0.69,-0.98,-0.6278329606785289
0.7,-0.98,-0.6199259033506119
0.71,-0.98,-0.6095722816993756
0.72,-0.98,-0.596812956739357
0.73,-0.98,-0.5816982836969924
0.74,-0.98,-0.5642879132815429
0.75,-0.98,-0.5446505562709967
0.76,-0.98,-0.522863712342019
0.77,-0.98,-0.4990133642141357
0.78,-0.98,-0.47319363831521977
0.79,-0.98,-0.44550643330748335
0.8,-0.98,-0.4160610179400115
0.81,-0.98,-0.3849735998149285
0.8200000000000001,-0.98,-0.35236686676908446
0.8300000000000001,-0.98,-0.31836950268121145
0.8400000000000001,-0.98,-0.2831156796154456
0.8500000000000001,-0.98,-0.24674452830548876
0.8600000000000001,-0.98,-0.20939958906916215
0.8700000000000001,-0.98,-0.17122824532035213
0.8800000000000001,-0.98,-0.13238114191400685
0.8900000000000001,-0.98,-0.09301159061971775
0.9000000000000001,-0.98,-0.05327496507020646
0.9100000000000001,-0.98,-0.013328087572579382
0.9199999999999999,-0.98,0.026671389797672602
0.9299999999999999,-0.98,0.06656560737739212
0.94,-0.98,0.10619712091572639
0.95,-0.98,0.1454095229346558
0.96,-0.98,0.18404805999785406
0.97,-0.98,0.2219602434518014
0.98,-0.98,0.2589964512288339
0.99,-0.98,0.2950105183370897
1.0,-0.98,0.32986031370695434

-1.0,-0.97,0.3566888451373648
-0.99,-0.97,0.39215571123515996
-0.98,-0.97,0.4260749178996125
-0.97,-0.97,0.45831260151822956
-0.96,-0.97,0.4887415346817646
-0.95,-0.97,0.5172416282926791
-0.94,-0.97,0.5437004055019443
-0.9299999999999999,-0.97,0.5680134456037813
-0.92,-0.97,0.5900847961364792
-0.91,-0.97,0.6098273515629267
-0.9,-0.97,0.6271631970363709
-0.89,-0.97,0.6420239158947231
-0.88,-0.97,0.6543508596698653
-0.87,-0.97,0.6640953795463622
-0.86,-0.97,0.6712190183561096
-0.85,-0.97,0.6756936623512053
-0.84,-0.97,0.6775016521560717
-0.83,-0.97,0.676635852460941
-0.8200000000000001,-0.97,0.6730996801816631
-0.81,-0.97,0.6669070909747018
-0.8,-0.97,0.6580825241605308
-0.79,-0.97,0.6466608062728061
-0.78,-0.97,0.6326870136139426
-0.77,-0.97,0.6162162943595468
-0.76,-0.97,0.59731365091376
-0.75,-0.97,0.5760536833744663
-0.74,-0.97,0.5525202951207882
-0.73,-0.97,0.5268063616847802
-0.72,-0.97,0.49901336421413567
-0.71,-0.97,0.4692509889724586
-0.7,-0.97,0.43763669445769193
-0.69,-0.97,0.40429524784708815
-0.6799999999999999,-0.97,0.369358232598161
-0.6699999999999999,-0.97,0.3329635291488947
-0.6599999999999999,-0.97,0.29525477076664414
-0.6499999999999999,-0.97,0.25638077669325166
-0.64,-0.97,0.21649496482348646
-0.63,-0.97,0.17575474623470416
-0.62,-0.97,0.13432090395723914
-0.61,-0.97,0.09235695843723873
-0.6,-0.97,0.050028522196167394
-0.59,-0.97,0.007502646233845392
-0.5800000000000001,-0.97,-0.035052839245528516
-0.5700000000000001,-0.97,-0.0774699871825193
-0.56,-0.97,-0.1195813964727712
-0.55,-0.97,-0.16122087262268853
-0.54,-0.97,-0.2022240836431746
-0.53,-0.97,-0.24242920859291678
-0.52,-0.97,-0.28167757621171297
-0.51,-0.97,-0.3198142911234454
-0.5,-0.97,-0.356688845137365
-0.49,-0.97,-0.39215571123516013
-0.48,-0.97,-0.4260749178996124
-0.47,-0.97,-0.45831260151822933
-0.45999999999999996,-0.97,-0.4887415346817645
-0.44999999999999996,-0.97,-0.517241628292679
-0.43999999999999995,-0.97,-0.5437004055019441
-0.42999999999999994,-0.97,-0.5680134456037813
-0.42000000000000004,-0.97,-0.5900847961364792
-0.41000000000000003,-0.97,-0.6098273515629268
-0.4,-0.97,-0.6271631970363711
-0.39,-0.97,-0.6420239158947232
-0.38,-0.97,-0.6543508596698656
-0.37,-0.97,-0.6640953795463627
-0.36,-0.97,-0.6712190183561095
-0.35,-0.97,-0.6756936623512053
-0.33999999999999997,-0.97,-0.6775016521560715
-0.32999999999999996,-0.97,-0.6766358524609412
-0.31999999999999995,-0.97,-0.6730996801816636
-0.30999999999999994,-0.97,-0.6669070909747017
-0.29999999999999993,-0.97,-0.6580825241605309
-0.29000000000000004,-0.97,-0.6466608062728059
-0.28,-0.97,-0.6326870136139422
-0.27,-0.97,-0.616216294359547
-0.26,-0.97,-0.5973136509137599
-0.25,-0.97,-0.5760536833744662
-0.24,-0.97,-0.5525202951207883
-0.22999999999999998,-0.97,-0.5268063616847802
-0.21999999999999997,-0.97,-0.4990133642141359
-0.20999999999999996,-0.97,-0.46925098897245887
-0.19999999999999996,-0.97,-0.437636694457692
-0.18999999999999995,-0.97,-0.40429524784708826
-0.17999999999999994,-0.97,-0.36935823259816114
-0.16999999999999993,-0.97,-0.3329635291488946
-0.16000000000000003,-0.97,-0.2952547707666442
-0.15000000000000002,-0.97,-0.2563807766932518
-0.14,-0.97,-0.21649496482348646
-0.13,-0.97,-0.175754746234704
-0.12,-0.97,-0.13432090395723903
-0.10999999999999999,-0.97,-0.09235695843723868
-0.09999999999999998,-0.97,-0.05002852219616727
-0.08999999999999997,-0.97,-0.007502646233845335
-0.07999999999999996,-0.97,0.035052839245528586
-0.06999999999999995,-0.97,0.07746998718251936
-0.05999999999999994,-0.97,0.11958139647277125
-0.04999999999999993,-0.97,0.16122087262268853
-0.040000000000000036,-0.97,0.20222408364317448
-0.030000000000000027,-0.97,0.24242920859291683
-0.020000000000000018,-0.97,0.2816775762117131
-0.010000000000000009,-0.97,0.3198142911234454
0.0,-0.97,0.3566888451373647
0.010000000000000009,-0.97,0.39215571123515996
0.020000000000000018,-0.97,0.42607491789961255
0.030000000000000027,-0.97,0.4583126015182294
0.040000000000000036,-0.97,0.4887415346817644
0.050000000000000044,-0.97,0.5172416282926788
0.06000000000000005,-0.97,0.5437004055019443
0.07000000000000006,-0.97,0.5680134456037813
0.08000000000000007,-0.97,0.5900847961364792
0.09000000000000008,-0.97,0.6098273515629267
0.10000000000000009,-0.97,0.6271631970363714
0.1100000000000001,-0.97,0.642023915894723
0.1200000000000001,-0.97,0.6543508596698654
0.13000000000000012,-0.97,0.6640953795463624
0.14000000000000012,-0.97,0.6712190183561093
0.15000000000000013,-0.97,0.6756936623512053
0.15999999999999992,-0.97,0.6775016521560715
0.16999999999999993,-0.97,0.676635852460941
0.17999999999999994,-0.97,0.6730996801816632
0.18999999999999995,-0.97,0.6669070909747016
0.19999999999999996,-0.97,0.6580825241605309
0.20999999999999996,-0.97,0.6466608062728061
0.21999999999999997,-0.97,0.6326870136139429
0.22999999999999998,-0.97,0.6162162943595471
0.24,-0.97,0.5973136509137598
0.25,-0.97,0.5760536833744665
0.26,-0.97,0.5525202951207882
0.27,-0.97,0.5268063616847805
0.28,-0.97,0.4990133642141359
0.29000000000000004,-0.97,0.46925098897245865
0.30000000000000004,-0.97,0.43763669445769204
0.31000000000000005,-0.97,0.4042952478470878
0.32000000000000006,-0.97,0.36935823259816103
0.33000000000000007,-0.97,0.3329635291488944
0.3400000000000001,-0.97,0.2952547707666441
0.3500000000000001,-0.97,0.25638077669325166
0.3600000000000001,-0.97,0.21649496482348635
0.3700000000000001,-0.97,0.17575474623470394
0.3800000000000001,-0.97,0.1343209039572389
0.3900000000000001,-0.97,0.0923569584372386
0.40000000000000013,-0.97,0.05002852219616729
0.4099999999999999,-0.97,0.007502646233845364
0.41999999999999993,-0.97,-0.0350528392455285
0.42999999999999994,-0.97,-0.07746998718251932
0.43999999999999995,-0.97,-0.11958139647277123
0.44999999999999996,-0.97,-0.1612208726226885
0.45999999999999996,-0.97,-0.2022240836431746
0.47,-0.97,-0.242429208592917
0.48,-0.97,-0.28167757621171297
0.49,-0.97,-0.3198142911234454
0.5,-0.97,-0.356688845137365
0.51,-0.97,-0.39215571123516
0.52,-0.97,-0.4260749178996127
0.53,-0.97,-0.4583126015182296
0.54,-0.97,-0.48874153468176457
0.55,-0.97,-0.5172416282926791
0.56,-0.97,-0.5437004055019441
0.5700000000000001,-0.97,-0.5680134456037813
0.5800000000000001,-0.97,-0.5900847961364795
0.5900000000000001,-0.97,-0.6098273515629269
0.6000000000000001,-0.97,-0.6271631970363711
0.6100000000000001,-0.97,-0.642023915894723
0.6200000000000001,-0.97,-0.6543508596698652
0.6300000000000001,-0.97,-0.6640953795463627
0.6400000000000001,-0.97,-0.6712190183561093
0.6500000000000001,-0.97,-0.6756936623512053
0.6600000000000001,-0.97,-0.6775016521560717