TITLE = "Solution" 
VARIABLES = "x", "y", "sol" 
ZONE STRANDID=1, SOLUTIONTIME= 0.049999999999999996, I= 201, J =201, DATAPACKING=POINT 
-1.0,-1.0,0.08571229604617983
-0.99,-1.0,0.0670894917274878
-0.98,-1.0,0.04820191583522067
-0.97,-1.0,0.02912410900251256
-0.96,-1.0,0.009931362617111283
-0.95,-1.0,-0.009300578319331728
-0.94,-1.0,-0.028495814122178394
-0.9299999999999999,-1.0,-0.04757858996518395
-0.92,-1.0,-0.06647359485018706
-0.91,-1.0,-0.08510625882521328
-0.9,-1.0,-0.10340304727800748
-0.89,-1.0,-0.12129175114355417
-0.88,-1.0,-0.13870177188026733
-0.87,-1.0,-0.15556440009018108
-0.86,-1.0,-0.17181308668355305
-0.85,-1.0,-0.18738370551771788
-0.84,-1.0,-0.20221480647367618
-0.83,-1.0,-0.2162478579716403
-0.8200000000000001,-1.0,-0.2294274779684393
-0.81,-1.0,-0.24170165252514136
-0.8,-1.0,-0.253021941082308
-0.79,-1.0,-0.2633436676327522
-0.78,-1.0,-0.2726260970373275
-0.77,-1.0,-0.28083259578791275
-0.76,-1.0,-0.28793077658313204
-0.75,-1.0,-0.293892626146237
-0.74,-1.0,-0.29869461578071194
-0.73,-1.0,-0.30231779422729
-0.72,-1.0,-0.30474786245591534
-0.71,-1.0,-0.30597523009748223
-0.7,-1.0,-0.30599505329264026
-0.69,-1.0,-0.30480725380829443
-0.6799999999999999,-1.0,-0.3024165193463555
-0.6699999999999999,-1.0,-0.2988322850435223
-0.6599999999999999,-1.0,-0.29406869623510695
-0.6499999999999999,-1.0,-0.2881445526298595
-0.64,-1.0,-0.28108323411610636
-0.63,-1.0,-0.2729126084920116
-0.62,-1.0,-0.2636649214841098
-0.61,-1.0,-0.25337666948815474
-0.6,-1.0,-0.2420884555345193
-0.59,-1.0,-0.22984482904658404
-0.5800000000000001,-1.0,-0.21669411002451597
-0.5700000000000001,-1.0,-0.20268819834830315
-0.56,-1.0,-0.18788236895263918
-0.55,-1.0,-0.17233505368200874
-0.54,-1.0,-0.15610761068689233
-0.53,-1.0,-0.13926408227117815
-0.52,-1.0,-0.12187094214644675
-0.51,-1.0,-0.10399683309060076
-0.5,-1.0,-0.08571229604617978
-0.49,-1.0,-0.06708949172748775
-0.48,-1.0,-0.04820191583522063
-0.47,-1.0,-0.029124109002512527
-0.45999999999999996,-1.0,-0.009931362617111257
-0.44999999999999996,-1.0,0.009300578319331752
-0.43999999999999995,-1.0,0.028495814122178414
-0.42999999999999994,-1.0,0.04757858996518398
-0.42000000000000004,-1.0,0.0664735948501871
-0.41000000000000003,-1.0,0.08510625882521326
-0.4,-1.0,0.1034030472780075
-0.39,-1.0,0.12129175114355417
-0.38,-1.0,0.1387017718802673
-0.37,-1.0,0.1555644000901811
-0.36,-1.0,0.17181308668355308
-0.35,-1.0,0.18738370551771788
-0.33999999999999997,-1.0,0.20221480647367618
-0.32999999999999996,-1.0,0.21624785797164028
-0.31999999999999995,-1.0,0.22942747796843926
-0.30999999999999994,-1.0,0.24170165252514128
-0.29999999999999993,-1.0,0.2530219410823079
-0.29000000000000004,-1.0,0.2633436676327522
-0.28,-1.0,0.2726260970373275
-0.27,-1.0,0.2808325957879128
-0.26,-1.0,0.28793077658313204
-0.25,-1.0,0.2938926261462369
-0.24,-1.0,0.298694615780712
-0.22999999999999998,-1.0,0.3023177942272899
-0.21999999999999997,-1.0,0.30474786245591534
-0.20999999999999996,-1.0,0.30597523009748223
-0.19999999999999996,-1.0,0.30599505329264026
-0.18999999999999995,-1.0,0.30480725380829443
-0.17999999999999994,-1.0,0.3024165193463555
-0.16999999999999993,-1.0,0.29883228504352216
-0.16000000000000003,-1.0,0.29406869623510684
-0.15000000000000002,-1.0,0.2881445526298596
-0.14,-1.0,0.28108323411610636
-0.13,-1.0,0.27291260849201165
-0.12,-1.0,0.2636649214841098
-0.10999999999999999,-1.0,0.2533766694881548
-0.09999999999999998,-1.0,0.24208845553451938
-0.08999999999999997,-1.0,0.22984482904658404
-0.07999999999999996,-1.0,0.216694110024516
-0.06999999999999995,-1.0,0.20268819834830307
-0.05999999999999994,-1.0,0.18788236895263916
-0.04999999999999993,-1.0,0.17233505368200866
-0.040000000000000036,-1.0,0.15610761068689225
-0.030000000000000027,-1.0,0.13926408227117804
-0.020000000000000018,-1.0,0.12187094214644664
-0.010000000000000009,-1.0,0.10399683309060062
0.0,-1.0,0.08571229604617968
0.010000000000000009,-1.0,0.06708949172748772
0.020000000000000018,-1.0,0.04820191583522064
0.030000000000000027,-1.0,0.029124109002512544
0.040000000000000036,-1.0,0.009931362617111295
0.050000000000000044,-1.0,-0.009300578319331709
0.06000000000000005,-1.0,-0.028495814122178366
0.07000000000000006,-1.0,-0.04757858996518392
0.08000000000000007,-1.0,-0.06647359485018703
0.09000000000000008,-1.0,-0.08510625882521321
0.10000000000000009,-1.0,-0.10340304727800748
0.1100000000000001,-1.0,-0.12129175114355416
0.1200000000000001,-1.0,-0.1387017718802674
0.13000000000000012,-1.0,-0.15556440009018122
0.14000000000000012,-1.0,-0.17181308668355322
0.15000000000000013,-1.0,-0.187383705517718
0.15999999999999992,-1.0,-0.2022148064736763
0.16999999999999993,-1.0,-0.21624785797164042
0.17999999999999994,-1.0,-0.22942747796843932
0.18999999999999995,-1.0,-0.2417016525251413
0.19999999999999996,-1.0,-0.25302194108230797
0.20999999999999996,-1.0,-0.2633436676327521
0.21999999999999997,-1.0,-0.27262609703732743
0.22999999999999998,-1.0,-0.28083259578791264
0.24,-1.0,-0.28793077658313204
0.25,-1.0,-0.2938926261462369
0.26,-1.0,-0.2986946157807118
0.27,-1.0,-0.3023177942272899
0.28,-1.0,-0.30474786245591534
0.29000000000000004,-1.0,-0.30597523009748223
0.30000000000000004,-1.0,-0.30599505329264026
0.31000000000000005,-1.0,-0.30480725380829443
0.32000000000000006,-1.0,-0.3024165193463555
0.33000000000000007,-1.0,-0.2988322850435222
0.3400000000000001,-1.0,-0.29406869623510684
0.3500000000000001,-1.0,-0.2881445526298596
0.3600000000000001,-1.0,-0.28108323411610636
0.3700000000000001,-1.0,-0.27291260849201165
0.3800000000000001,-1.0,-0.26366492148410986
0.3900000000000001,-1.0,-0.25337666948815474
0.40000000000000013,-1.0,-0.24208845553451924
0.4099999999999999,-1.0,-0.22984482904658393
0.41999999999999993,-1.0,-0.21669411002451586
0.42999999999999994,-1.0,-0.20268819834830304
0.43999999999999995,-1.0,-0.1878823689526391
0.44999999999999996,-1.0,-0.17233505368200872
0.45999999999999996,-1.0,-0.15610761068689238
0.47,-1.0,-0.13926408227117817
0.48,-1.0,-0.12187094214644685
0.49,-1.0,-0.10399683309060083
0.5,-1.0,-0.08571229604617983
0.51,-1.0,-0.06708949172748783
0.52,-1.0,-0.04820191583522072
0.53,-1.0,-0.029124109002512607
0.54,-1.0,-0.009931362617111339
0.55,-1.0,0.009300578319331678
0.56,-1.0,0.02849581412217834
0.5700000000000001,-1.0,0.04757858996518391
0.5800000000000001,-1.0,0.06647359485018703
0.5900000000000001,-1.0,0.0851062588252132
0.6000000000000001,-1.0,0.10340304727800746
0.6100000000000001,-1.0,0.12129175114355412
0.6200000000000001,-1.0,0.13870177188026733
0.6300000000000001,-1.0,0.15556440009018116
0.6400000000000001,-1.0,0.17181308668355305
0.6500000000000001,-1.0,0.1873837055177179
0.6600000000000001,-1.0,0.20221480647367623
0.6699999999999999,-1.0,0.21624785797164037
0.6799999999999999,-1.0,0.22942747796843932
0.69,-1.0,0.24170165252514136
0.7,-1.0,0.253021941082308
0.71,-1.0,0.2633436676327521
0.72,-1.0,0.2726260970373275
0.73,-1.0,0.2808325957879127
0.74,-1.0,0.287930776583132
0.75,-1.0,0.293892626146237
0.76,-1.0,0.2986946157807119
0.77,-1.0,0.3023177942272899
0.78,-1.0,0.30474786245591534
0.79,-1.0,0.30597523009748223
0.8,-1.0,0.3059950532926403
0.81,-1.0,0.30480725380829443
0.8200000000000001,-1.0,0.3024165193463556
0.8300000000000001,-1.0,0.2988322850435223
0.8400000000000001,-1.0,0.2940686962351069
0.8500000000000001,-1.0,0.2881445526298596
0.8600000000000001,-1.0,0.2810832341161064
0.8700000000000001,-1.0,0.27291260849201165
0.8800000000000001,-1.0,0.26366492148410986
0.8900000000000001,-1.0,0.25337666948815474
0.9000000000000001,-1.0,0.2420884555345193
0.9100000000000001,-1.0,0.22984482904658396
0.9199999999999999,-1.0,0.21669411002451594
0.9299999999999999,-1.0,0.20268819834830304
0.94,-1.0,0.18788236895263913
0.95,-1.0,0.17233505368200877
0.96,-1.0,0.15610761068689238
0.97,-1.0,0.1392640822711782
0.98,-1.0,0.12187094214644686
0.99,-1.0,0.10399683309060082
1.0,-1.0,0.08571229604617983

-1.0,-0.99,0.0670894917274878
-0.99,-0.99,0.05206745321172164
-0.98,-0.99,0.03683992824548551
-0.97,-0.99,0.021467012913026683
-0.96,-0.99,0.006009377087945463
-0.95,-0.99,-0.009471975003078632
-0.94,-0.99,-0.024915945536099323
-0.9299999999999999,-0.99,-0.04026158421510177
-0.92,-0.99,-0.055448328814975426
-0.91,-0.99,-0.07041624419294815
-0.9,-0.99,-0.08510625882521325
-0.89,-0.99,-0.09946039793524639
-0.88,-0.99,-0.11342201229376266
-0.87,-0.99,-0.12693600178734393
-0.86,-0.99,-0.13994903287341356
-0.85,-0.99,-0.1524097490633632
-0.84,-0.99,-0.1642689736031508
-0.83,-0.99,-0.1754799035514822
-0.8200000000000001,-0.99,-0.18599829448963814
-0.81,-0.99,-0.1957826351339812
-0.8,-0.99,-0.20479431116202834
-0.79,-0.99,-0.21299775760553996
-0.78,-0.99,-0.2203605992092018
-0.77,-0.99,-0.22685377820096653
-0.76,-0.99,-0.2324516689698049
-0.75,-0.99,-0.23713217919828547
-0.74,-0.99,-0.24087683705085797
-0.73,-0.99,-0.24367086407374985
-0.72,-0.99,-0.24550323351877132
-0.71,-0.99,-0.24636671386085274
-0.7,-0.99,-0.24625789733757059
-0.69,-0.99,-0.24517721339802873
-0.6799999999999999,-0.99,-0.24312892700801908
-0.6699999999999999,-0.99,-0.24012112181814985
-0.6599999999999999,-0.99,-0.23616566826137003
-0.6499999999999999,-0.99,-0.2312781767057934
-0.64,-0.99,-0.22547793584770737
-0.63,-0.99,-0.21878783658790069
-0.62,-0.99,-0.21123428169173628
-0.61,-0.99,-0.20284708158949832
-0.6,-0.99,-0.1936593367282431
-0.59,-0.99,-0.18370730693945664
-0.5800000000000001,-0.99,-0.17303026833806534
-0.5700000000000001,-0.99,-0.16167035831755394
-0.56,-0.99,-0.14967240925292413
-0.55,-0.99,-0.13708377156779258
-0.54,-0.99,-0.12395412686390095
-0.53,-0.99,-0.11033529185053134
-0.52,-0.99,-0.0962810138476278
-0.51,-0.99,-0.08184675866967878
-0.5,-0.99,-0.06708949172748777
-0.49,-0.99,-0.05206745321172161
-0.48,-0.99,-0.03683992824548547
-0.47,-0.99,-0.02146701291302666
-0.45999999999999996,-0.99,-0.006009377087945447
-0.44999999999999996,-0.99,0.009471975003078646
-0.43999999999999995,-0.99,0.024915945536099344
-0.42999999999999994,-0.99,0.040261584215101794
-0.42000000000000004,-0.99,0.05544832881497544
-0.41000000000000003,-0.99,0.07041624419294817
-0.4,-0.99,0.08510625882521324
-0.39,-0.99,0.09946039793524637
-0.38,-0.99,0.11342201229376266
-0.37,-0.99,0.12693600178734396
-0.36,-0.99,0.13994903287341354
-0.35,-0.99,0.1524097490633632
-0.33999999999999997,-0.99,0.1642689736031508
-0.32999999999999996,-0.99,0.1754799035514822
-0.31999999999999995,-0.99,0.18599829448963806
-0.30999999999999994,-0.99,0.19578263513398114
-0.29999999999999993,-0.99,0.20479431116202834
-0.29000000000000004,-0.99,0.21299775760553996
-0.28,-0.99,0.2203605992092018
-0.27,-0.99,0.2268537782009665
-0.26,-0.99,0.23245166896980493
-0.25,-0.99,0.23713217919828547
-0.24,-0.99,0.2408768370508579
-0.22999999999999998,-0.99,0.24367086407374985
-0.21999999999999997,-0.99,0.24550323351877132
-0.20999999999999996,-0.99,0.24636671386085274
-0.19999999999999996,-0.99,0.24625789733757056
-0.18999999999999995,-0.99,0.24517721339802873
-0.17999999999999994,-0.99,0.24312892700801902
-0.16999999999999993,-0.99,0.24012112181814985
-0.16000000000000003,-0.99,0.2361656682613701
-0.15000000000000002,-0.99,0.2312781767057934
-0.14,-0.99,0.22547793584770734
-0.13,-0.99,0.21878783658790069
-0.12,-0.99,0.21123428169173633
-0.10999999999999999,-0.99,0.20284708158949838
-0.09999999999999998,-0.99,0.19365933672824315
-0.08999999999999997,-0.99,0.18370730693945667
-0.07999999999999996,-0.99,0.17303026833806529
-0.06999999999999995,-0.99,0.16167035831755389
-0.05999999999999994,-0.99,0.14967240925292408
-0.04999999999999993,-0.99,0.13708377156779253
-0.040000000000000036,-0.99,0.12395412686390088
-0.030000000000000027,-0.99,0.11033529185053129
-0.020000000000000018,-0.99,0.09628101384762769
-0.010000000000000009,-0.99,0.08184675866967868
0.0,-0.99,0.0670894917274877
0.010000000000000009,-0.99,0.052067453211721584
0.020000000000000018,-0.99,0.036839928245485466
0.030000000000000027,-0.99,0.021467012913026683
0.040000000000000036,-0.99,0.006009377087945476
0.050000000000000044,-0.99,-0.00947197500307861
0.06000000000000005,-0.99,-0.024915945536099302
0.07000000000000006,-0.99,-0.040261584215101745
0.08000000000000007,-0.99,-0.055448328814975384
0.09000000000000008,-0.99,-0.07041624419294815
0.10000000000000009,-0.99,-0.08510625882521321
0.1100000000000001,-0.99,-0.09946039793524641
0.1200000000000001,-0.99,-0.11342201229376271
0.13000000000000012,-0.99,-0.12693600178734402
0.14000000000000012,-0.99,-0.13994903287341365
0.15000000000000013,-0.99,-0.15240974906336327
0.15999999999999992,-0.99,-0.1642689736031509
0.16999999999999993,-0.99,-0.17547990355148227
0.17999999999999994,-0.99,-0.18599829448963812
0.18999999999999995,-0.99,-0.1957826351339812
0.19999999999999996,-0.99,-0.20479431116202831
0.20999999999999996,-0.99,-0.2129977576055399
0.21999999999999997,-0.99,-0.22036059920920176
0.22999999999999998,-0.99,-0.22685377820096647
0.24,-0.99,-0.23245166896980488
0.25,-0.99,-0.2371321791982854
0.26,-0.99,-0.2408768370508579
0.27,-0.99,-0.24367086407374985
0.28,-0.99,-0.24550323351877132
0.29000000000000004,-0.99,-0.24636671386085274
0.30000000000000004,-0.99,-0.24625789733757056
0.31000000000000005,-0.99,-0.24517721339802873
0.32000000000000006,-0.99,-0.24312892700801902
0.33000000000000007,-0.99,-0.24012112181814985
0.3400000000000001,-0.99,-0.2361656682613701
0.3500000000000001,-0.99,-0.23127817670579343
0.3600000000000001,-0.99,-0.22547793584770734
0.3700000000000001,-0.99,-0.21878783658790074
0.3800000000000001,-0.99,-0.2112342816917363
0.3900000000000001,-0.99,-0.20284708158949832
0.40000000000000013,-0.99,-0.19365933672824306
0.4099999999999999,-0.99,-0.18370730693945658
0.41999999999999993,-0.99,-0.17303026833806526
0.42999999999999994,-0.99,-0.16167035831755383
0.43999999999999995,-0.99,-0.14967240925292408
0.44999999999999996,-0.99,-0.13708377156779253
0.45999999999999996,-0.99,-0.12395412686390095
0.47,-0.99,-0.11033529185053143
0.48,-0.99,-0.09628101384762787
0.49,-0.99,-0.08184675866967886
0.5,-0.99,-0.06708949172748782
0.51,-0.99,-0.052067453211721675
0.52,-0.99,-0.03683992824548553
0.53,-0.99,-0.021467012913026724
0.54,-0.99,-0.006009377087945505
0.55,-0.99,0.009471975003078585
0.56,-0.99,0.024915945536099285
0.5700000000000001,-0.99,0.040261584215101745
0.5800000000000001,-0.99,0.055448328814975384
0.5900000000000001,-0.99,0.07041624419294813
0.6000000000000001,-0.99,0.0851062588252132
0.6100000000000001,-0.99,0.09946039793524634
0.6200000000000001,-0.99,0.11342201229376266
0.6300000000000001,-0.99,0.12693600178734393
0.6400000000000001,-0.99,0.1399490328734136
0.6500000000000001,-0.99,0.1524097490633632
0.6600000000000001,-0.99,0.16426897360315085
0.6699999999999999,-0.99,0.1754799035514823
0.6799999999999999,-0.99,0.18599829448963812
0.69,-0.99,0.1957826351339812
0.7,-0.99,0.20479431116202831
0.71,-0.99,0.21299775760553996
0.72,-0.99,0.22036059920920179
0.73,-0.99,0.22685377820096647
0.74,-0.99,0.23245166896980496
0.75,-0.99,0.23713217919828536
0.76,-0.99,0.24087683705085786
0.77,-0.99,0.24367086407374985
0.78,-0.99,0.24550323351877132
0.79,-0.99,0.24636671386085277
0.8,-0.99,0.24625789733757059
0.81,-0.99,0.24517721339802875
0.8200000000000001,-0.99,0.2431289270080191
0.8300000000000001,-0.99,0.24012112181814982
0.8400000000000001,-0.99,0.2361656682613701
0.8500000000000001,-0.99,0.23127817670579343
0.8600000000000001,-0.99,0.22547793584770737
0.8700000000000001,-0.99,0.21878783658790074
0.8800000000000001,-0.99,0.2112342816917363
0.8900000000000001,-0.99,0.20284708158949832
0.9000000000000001,-0.99,0.1936593367282431
0.9100000000000001,-0.99,0.1837073069394566
0.9199999999999999,-0.99,0.17303026833806523
0.9299999999999999,-0.99,0.16167035831755386
0.94,-0.99,0.14967240925292408
0.95,-0.99,0.13708377156779256
0.96,-0.99,0.12395412686390098
0.97,-0.99,0.11033529185053145
0.98,-0.99,0.09628101384762787
0.99,-0.99,0.08184675866967885
1.0,-0.99,0.0670894917274878

-1.0,-0.98,0.04820191583522067
-0.99,-0.98,0.03683992824548551
-0.98,-0.98,0.025332550289527654
-0.97,-0.98,0.013725196330918406
-0.96,-0.98,0.0020636752928367627
-0.95,-0.98,-0.009605990128822132
-0.94,-0.98,-0.02123774509600201
-0.9299999999999999,-0.98,-0.03278568438589078
-0.92,-0.98,-0.04420423355786287
-0.91,-0.98,-0.0554483288149754
-0.9,-0.98,-0.06647359485018706
-0.89,-0.98,-0.07723651997542175
-0.88,-0.98,-0.08769462784232299
-0.87,-0.98,-0.09780664507699506
-0.86,-0.98,-0.10753266416715404
-0.85,-0.98,-0.11683430095884648
-0.84,-0.98,-0.12567484614116922
-0.83,-0.98,-0.1340194101211486
-0.8200000000000001,-0.98,-0.14183506071702412
-0.81,-0.98,-0.1490909531265251
-0.8,-0.98,-0.15575845165721314
-0.79,-0.98,-0.16181124273847797
-0.78,-0.98,-0.167225438769179
-0.77,-0.98,-0.1719796723910939
-0.76,-0.98,-0.17605518081611987
-0.75,-0.98,-0.1794358798744259
-0.74,-0.98,-0.18210842749132336
-0.73,-0.98,-0.18406227634233924
-0.72,-0.98,-0.18528971547868717
-0.71,-0.98,-0.18578590075885965
-0.7,-0.98,-0.1855488739662412
-0.69,-0.98,-0.18457957053729523
-0.6799999999999999,-0.98,-0.182881815869823
-0.6699999999999999,-0.98,-0.18046231022586684
-0.6599999999999999,-0.98,-0.17733060228883635
-0.6499999999999999,-0.98,-0.17349905147921782
-0.64,-0.98,-0.1689827791775877
-0.63,-0.98,-0.163799609047432
-0.62,-0.98,-0.15796999669328918
-0.61,-0.98,-0.15151694893182463
-0.6,-0.98,-0.14446593299443566
-0.59,-0.98,-0.1368447760197244
-0.5800000000000001,-0.98,-0.12868355523249458
-0.5700000000000001,-0.98,-0.12001447924268634
-0.56,-0.98,-0.11087176093270733
-0.55,-0.98,-0.10129148243481631
-0.54,-0.98,-0.0913114527314316
-0.53,-0.98,-0.0809710584403506
-0.52,-0.98,-0.07031110837376339
-0.51,-0.98,-0.05937367248451482
-0.5,-0.98,-0.048201915835220634
-0.49,-0.98,-0.03683992824548547
-0.48,-0.98,-0.025332550289527637
-0.47,-0.98,-0.013725196330918387
-0.45999999999999996,-0.98,-0.0020636752928367558
-0.44999999999999996,-0.98,0.009605990128822142
-0.43999999999999995,-0.98,0.021237745096002025
-0.42999999999999994,-0.98,0.0327856843858908
-0.42000000000000004,-0.98,0.04420423355786289
-0.41000000000000003,-0.98,0.05544832881497541
-0.4,-0.98,0.06647359485018706
-0.39,-0.98,0.07723651997542175
-0.38,-0.98,0.08769462784232296
-0.37,-0.98,0.09780664507699505
-0.36,-0.98,0.10753266416715401
-0.35,-0.98,0.11683430095884649
-0.33999999999999997,-0.98,0.12567484614116922
-0.32999999999999996,-0.98,0.13401941012114854
-0.31999999999999995,-0.98,0.14183506071702406
-0.30999999999999994,-0.98,0.1490909531265251
-0.29999999999999993,-0.98,0.15575845165721308
-0.29000000000000004,-0.98,0.16181124273847797
-0.28,-0.98,0.167225438769179
-0.27,-0.98,0.171979672391094
-0.26,-0.98,0.17605518081611993
-0.25,-0.98,0.17943587987442589
-0.24,-0.98,0.18210842749132336
-0.22999999999999998,-0.98,0.18406227634233924
-0.21999999999999997,-0.98,0.18528971547868717
-0.20999999999999996,-0.98,0.18578590075885965
-0.19999999999999996,-0.98,0.1855488739662412
-0.18999999999999995,-0.98,0.18457957053729518
-0.17999999999999994,-0.98,0.182881815869823
-0.16999999999999993,-0.98,0.18046231022586684
-0.16000000000000003,-0.98,0.17733060228883635
-0.15000000000000002,-0.98,0.17349905147921782
-0.14,-0.98,0.16898277917758772
-0.13,-0.98,0.16379960904743202
-0.12,-0.98,0.1579699966932892
-0.10999999999999999,-0.98,0.15151694893182466
-0.09999999999999998,-0.98,0.14446593299443566
-0.08999999999999997,-0.98,0.1368447760197244
-0.07999999999999996,-0.98,0.12868355523249458
-0.06999999999999995,-0.98,0.12001447924268632
-0.05999999999999994,-0.98,0.11087176093270729
-0.04999999999999993,-0.98,0.1012914824348163
-0.040000000000000036,-0.98,0.09131145273143156
-0.030000000000000027,-0.98,0.08097105844035053
-0.020000000000000018,-0.98,0.0703111083737633
-0.010000000000000009,-0.98,0.05937367248451475
0.0,-0.98,0.0482019158352206
0.010000000000000009,-0.98,0.036839928245485445
0.020000000000000018,-0.98,0.025332550289527644
0.030000000000000027,-0.98,0.01372519633091841
0.040000000000000036,-0.98,0.002063675292836777
0.050000000000000044,-0.98,-0.00960599012882212
0.06000000000000005,-0.98,-0.02123774509600199
0.07000000000000006,-0.98,-0.03278568438589076
0.08000000000000007,-0.98,-0.04420423355786285
0.09000000000000008,-0.98,-0.055448328814975384
0.10000000000000009,-0.98,-0.06647359485018704
0.1100000000000001,-0.98,-0.07723651997542175
0.1200000000000001,-0.98,-0.08769462784232299
0.13000000000000012,-0.98,-0.09780664507699514
0.14000000000000012,-0.98,-0.1075326641671541
0.15000000000000013,-0.98,-0.11683430095884655
0.15999999999999992,-0.98,-0.12567484614116925
0.16999999999999993,-0.98,-0.1340194101211486
0.17999999999999994,-0.98,-0.14183506071702412
0.18999999999999995,-0.98,-0.1490909531265251
0.19999999999999996,-0.98,-0.15575845165721314
0.20999999999999996,-0.98,-0.1618112427384779
0.21999999999999997,-0.98,-0.16722543876917895
0.22999999999999998,-0.98,-0.1719796723910939
0.24,-0.98,-0.17605518081611987
0.25,-0.98,-0.17943587987442589
0.26,-0.98,-0.18210842749132336
0.27,-0.98,-0.18406227634233924
0.28,-0.98,-0.18528971547868717
0.29000000000000004,-0.98,-0.18578590075885965
0.30000000000000004,-0.98,-0.1855488739662412
0.31000000000000005,-0.98,-0.18457957053729518
0.32000000000000006,-0.98,-0.182881815869823
0.33000000000000007,-0.98,-0.18046231022586684
0.3400000000000001,-0.98,-0.17733060228883638
0.3500000000000001,-0.98,-0.1734990514792178
0.3600000000000001,-0.98,-0.16898277917758775
0.3700000000000001,-0.98,-0.16379960904743202
0.3800000000000001,-0.98,-0.1579699966932892
0.3900000000000001,-0.98,-0.15151694893182463
0.40000000000000013,-0.98,-0.14446593299443564
0.4099999999999999,-0.98,-0.13684477601972436
0.41999999999999993,-0.98,-0.12868355523249453
0.42999999999999994,-0.98,-0.12001447924268627
0.43999999999999995,-0.98,-0.11087176093270724
0.44999999999999996,-0.98,-0.10129148243481631
0.45999999999999996,-0.98,-0.09131145273143164
0.47,-0.98,-0.08097105844035066
0.48,-0.98,-0.07031110837376345
0.49,-0.98,-0.05937367248451487
0.5,-0.98,-0.048201915835220675
0.51,-0.98,-0.036839928245485515
0.52,-0.98,-0.025332550289527682
0.53,-0.98,-0.01372519633091843
0.54,-0.98,-0.0020636752928367996
0.55,-0.98,0.009605990128822102
0.56,-0.98,0.02123774509600198
0.5700000000000001,-0.98,0.032785684385890745
0.5800000000000001,-0.98,0.04420423355786284
0.5900000000000001,-0.98,0.055448328814975384
0.6000000000000001,-0.98,0.06647359485018703
0.6100000000000001,-0.98,0.07723651997542172
0.6200000000000001,-0.98,0.08769462784232296
0.6300000000000001,-0.98,0.09780664507699509
0.6400000000000001,-0.98,0.10753266416715404
0.6500000000000001,-0.98,0.11683430095884652
0.6600000000000001,-0.98,0.12567484614116925
0.6699999999999999,-0.98,0.1340194101211486
0.6799999999999999,-0.98,0.14183506071702415
0.69,-0.98,0.1490909531265251
0.7,-0.98,0.15575845165721314
0.71,-0.98,0.1618112427384779
0.72,-0.98,0.16722543876917895
0.73,-0.98,0.17197967239109396
0.74,-0.98,0.17605518081611984
0.75,-0.98,0.17943587987442586
0.76,-0.98,0.18210842749132336
0.77,-0.98,0.18406227634233924
0.78,-0.98,0.18528971547868717
0.79,-0.98,0.18578590075885965
0.8,-0.98,0.1855488739662412
0.81,-0.98,0.18457957053729523
0.8200000000000001,-0.98,0.182881815869823
0.8300000000000001,-0.98,0.18046231022586684
0.8400000000000001,-0.98,0.1773306022888364
0.8500000000000001,-0.98,0.17349905147921782
0.8600000000000001,-0.98,0.16898277917758775
0.8700000000000001,-0.98,0.16379960904743202
0.8800000000000001,-0.98,0.1579699966932892
0.8900000000000001,-0.98,0.15151694893182463
0.9000000000000001,-0.98,0.14446593299443564
0.9100000000000001,-0.98,0.13684477601972433
0.9199999999999999,-0.98,0.12868355523249453
0.9299999999999999,-0.98,0.12001447924268625
0.94,-0.98,0.11087176093270726
0.95,-0.98,0.1012914824348163
0.96,-0.98,0.09131145273143165
0.97,-0.98,0.08097105844035066
0.98,-0.98,0.07031110837376345
0.99,-0.98,0.05937367248451486
1.0,-0.98,0.04820191583522067

-1.0,-0.97,0.029124109002512555
-0.99,-0.97,0.02146701291302668
-0.98,-0.97,0.013725196330918406
-0.97,-0.97,0.005929212669337735
-0.96,-0.97,-0.001890170885849198
-0.95,-0.97,-0.009702094800086616
-0.94,-0.97,-0.01747572897861359
-0.9299999999999999,-0.97,-0.025180394438763097
-0.92,-0.97,-0.03278568438589077
-0.91,-0.97,-0.040261584215101766
-0.9,-0.97,-0.04757858996518392
-0.89,-0.97,-0.05470782475726365
-0.88,-0.97,-0.06162115275865411
-0.87,-0.97,-0.06829129022213304
-0.86,-0.97,-0.07469191316242796
-0.85,-0.97,-0.08079776124496008
-0.84,-0.97,-0.08658473747684424
-0.83,-0.97,-0.09203000330671109
-0.8200000000000001,-0.97,-0.09711206875803556
-0.81,-0.97,-0.10181087724025607
-0.8,-0.97,-0.10610788470297473
-0.79,-0.97,-0.10998613282085216
-0.78,-0.97,-0.11343031592037009
-0.77,-0.97,-0.11642684138433235
-0.76,-0.97,-0.11896388329571495
-0.75,-0.97,-0.1210314291091578
-0.74,-0.97,-0.12262131916590717
-0.73,-0.97,-0.12372727889626066
-0.72,-0.97,-0.12434494358242755
-0.71,-0.97,-0.12447187558407566
-0.7,-0.97,-0.12410757395858424
-0.69,-0.97,-0.12325347643803548
-0.6799999999999999,-0.97,-0.12191295375514297
-0.6699999999999999,-0.97,-0.12009129634050952
-0.6599999999999999,-0.97,-0.11779569344371461
-0.6499999999999999,-0.97,-0.11503520476063064
-0.64,-0.97,-0.11182072467894247
-0.63,-0.97,-0.10816493928297619
-0.62,-0.97,-0.1040822762875203
-0.61,-0.97,-0.09958884809822653
-0.6,-0.97,-0.09470238822330589
-0.59,-0.97,-0.08944218128747358
-0.5800000000000001,-0.97,-0.0838289869243454
-0.5700000000000001,-0.97,-0.07788495784764798
-0.56,-0.97,-0.07163355242457849
-0.55,-0.97,-0.06509944209634633
-0.54,-0.97,-0.05830841401126598
-0.53,-0.97,-0.05128726925466361
-0.52,-0.97,-0.04406371707723762
-0.51,-0.97,-0.036666265539305236
-0.5,-0.97,-0.029124109002512538
-0.49,-0.97,-0.02146701291302667
-0.48,-0.97,-0.013725196330918392
-0.47,-0.97,-0.005929212669337731
-0.45999999999999996,-0.97,0.0018901708858492028
-0.44999999999999996,-0.97,0.009702094800086627
-0.43999999999999995,-0.97,0.017475728978613603
-0.42999999999999994,-0.97,0.025180394438763114
-0.42000000000000004,-0.97,0.03278568438589078
-0.41000000000000003,-0.97,0.04026158421510177
-0.4,-0.97,0.04757858996518393
-0.39,-0.97,0.05470782475726363
-0.38,-0.97,0.06162115275865411
-0.37,-0.97,0.06829129022213302
-0.36,-0.97,0.07469191316242799
-0.35,-0.97,0.08079776124496008
-0.33999999999999997,-0.97,0.0865847374768442
-0.32999999999999996,-0.97,0.09203000330671107
-0.31999999999999995,-0.97,0.09711206875803552
-0.30999999999999994,-0.97,0.10181087724025603
-0.29999999999999993,-0.97,0.1061078847029747
-0.29000000000000004,-0.97,0.10998613282085212
-0.28,-0.97,0.11343031592037009
-0.27,-0.97,0.11642684138433237
-0.26,-0.97,0.11896388329571492
-0.25,-0.97,0.1210314291091578
-0.24,-0.97,0.12262131916590716
-0.22999999999999998,-0.97,0.12372727889626067
-0.21999999999999997,-0.97,0.12434494358242756
-0.20999999999999996,-0.97,0.12447187558407564
-0.19999999999999996,-0.97,0.12410757395858422
-0.18999999999999995,-0.97,0.12325347643803547
-0.17999999999999994,-0.97,0.12191295375514297
-0.16999999999999993,-0.97,0.12009129634050952
-0.16000000000000003,-0.97,0.11779569344371461
-0.15000000000000002,-0.97,0.11503520476063066
-0.14,-0.97,0.11182072467894247
-0.13,-0.97,0.10816493928297621
-0.12,-0.97,0.10408227628752033
-0.10999999999999999,-0.97,0.09958884809822655
-0.09999999999999998,-0.97,0.0947023882233059
-0.08999999999999997,-0.97,0.08944218128747358
-0.07999999999999996,-0.97,0.0838289869243454
-0.06999999999999995,-0.97,0.07788495784764796
-0.05999999999999994,-0.97,0.07163355242457849
-0.04999999999999993,-0.97,0.0650994420963463
-0.040000000000000036,-0.97,0.05830841401126595
-0.030000000000000027,-0.97,0.05128726925466355
-0.020000000000000018,-0.97,0.044063717077237566
-0.010000000000000009,-0.97,0.036666265539305194
0.0,-0.97,0.029124109002512503
0.010000000000000009,-0.97,0.021467012913026665
0.020000000000000018,-0.97,0.013725196330918402
0.030000000000000027,-0.97,0.005929212669337745
0.040000000000000036,-0.97,-0.0018901708858491868
0.050000000000000044,-0.97,-0.009702094800086606
0.06000000000000005,-0.97,-0.017475728978613575
0.07000000000000006,-0.97,-0.025180394438763087
0.08000000000000007,-0.97,-0.03278568438589076
0.09000000000000008,-0.97,-0.040261584215101745
0.10000000000000009,-0.97,-0.04757858996518391
0.1100000000000001,-0.97,-0.05470782475726364
0.1200000000000001,-0.97,-0.061621152758654166
0.13000000000000012,-0.97,-0.06829129022213308
0.14000000000000012,-0.97,-0.07469191316242804
0.15000000000000013,-0.97,-0.0807977612449601
0.15999999999999992,-0.97,-0.08658473747684424
0.16999999999999993,-0.97,-0.0920300033067111
0.17999999999999994,-0.97,-0.09711206875803557
0.18999999999999995,-0.97,-0.10181087724025609
0.19999999999999996,-0.97,-0.10610788470297469
0.20999999999999996,-0.97,-0.10998613282085211
0.21999999999999997,-0.97,-0.11343031592037006
0.22999999999999998,-0.97,-0.11642684138433232
0.24,-0.97,-0.11896388329571492
0.25,-0.97,-0.1210314291091578
0.26,-0.97,-0.12262131916590716
0.27,-0.97,-0.12372727889626067
0.28,-0.97,-0.12434494358242756
0.29000000000000004,-0.97,-0.12447187558407564
0.30000000000000004,-0.97,-0.12410757395858422
0.31000000000000005,-0.97,-0.12325347643803547
0.32000000000000006,-0.97,-0.12191295375514297
0.33000000000000007,-0.97,-0.12009129634050952
0.3400000000000001,-0.97,-0.1177956934437146
0.3500000000000001,-0.97,-0.11503520476063069
0.3600000000000001,-0.97,-0.1118207246789425
0.3700000000000001,-0.97,-0.10816493928297623
0.3800000000000001,-0.97,-0.10408227628752031
0.3900000000000001,-0.97,-0.09958884809822652
0.40000000000000013,-0.97,-0.0947023882233059
0.4099999999999999,-0.97,-0.08944218128747355
0.41999999999999993,-0.97,-0.08382898692434534
0.42999999999999994,-0.97,-0.07788495784764793
0.43999999999999995,-0.97,-0.07163355242457847
0.44999999999999996,-0.97,-0.06509944209634634
0.45999999999999996,-0.97,-0.058308414011266005
0.47,-0.97,-0.05128726925466365
0.48,-0.97,-0.04406371707723765
0.49,-0.97,-0.036666265539305264
0.5,-0.97,-0.029124109002512565
0.51,-0.97,-0.021467012913026697
0.52,-0.97,-0.013725196330918416
0.53,-0.97,-0.00592921266933776
0.54,-0.97,0.0018901708858491731
0.55,-0.97,0.009702094800086597