TITLE = "Solution" 
VARIABLES = "x", "y", "sol" 
ZONE STRANDID=1, SOLUTIONTIME= 0.6500000000000005, I= 201, J =201, DATAPACKING=POINT 
-1.0,-1.0,0.5412781732665499
-0.99,-1.0,0.5103514180548899
-0.98,-1.0,0.477410538953552
-0.97,-1.0,0.44258553856309313
-0.96,-1.0,0.40601385525002476
-0.95,-1.0,0.3678398207403711
-0.94,-1.0,0.32821409050828376
-0.9299999999999999,-1.0,0.2872930492077156
-0.92,-1.0,0.2452381934936334
-0.91,-1.0,0.20221549466850544
-0.9,-1.0,0.15839474366939257
-0.89,-1.0,0.11394888098069167
-0.88,-1.0,0.06905331411705183
-0.87,-1.0,0.02388522537005038
-0.86,-1.0,-0.021377127449365214
-0.85,-1.0,-0.06655511451301865
-0.84,-1.0,-0.11147043894582878
-0.83,-1.0,-0.15594584048211912
-0.8200000000000001,-1.0,-0.19980579503090407
-0.81,-1.0,-0.24287720738928711
-0.8,-1.0,-0.28499009437014566
-0.79,-1.0,-0.3259782556481148
-0.78,-1.0,-0.3656799296763399
-0.77,-1.0,-0.4039384320854007
-0.76,-1.0,-0.4406027740449364
-0.75,-1.0,-0.47552825814757693
-0.74,-1.0,-0.5085770494635051
-0.73,-1.0,-0.5396187195119535
-0.72,-1.0,-0.568530761002831
-0.71,-1.0,-0.5951990713170283
-0.7,-1.0,-0.6195184028173278
-0.69,-1.0,-0.6413927782127432
-0.6799999999999999,-1.0,-0.6607358693370406
-0.6699999999999999,-1.0,-0.6774713378465695
-0.6599999999999999,-1.0,-0.6915331364928312
-0.6499999999999999,-1.0,-0.7028657697807944
-0.64,-1.0,-0.7114245129842588
-0.63,-1.0,-0.7171755886539176
-0.62,-1.0,-0.7200962999215198
-0.61,-1.0,-0.7201751200740378
-0.6,-1.0,-0.7174117380443397
-0.59,-1.0,-0.7118170596388271
-0.5800000000000001,-1.0,-0.7034131644972013
-0.5700000000000001,-1.0,-0.6922332189542119
-0.56,-1.0,-0.6783213451472854
-0.55,-1.0,-0.6617324468866074
-0.54,-1.0,-0.6425319929748662
-0.53,-1.0,-0.6207957588317985
-0.52,-1.0,-0.5966095274432263
-0.51,-1.0,-0.5700687508148011
-0.5,-1.0,-0.5412781732665497
-0.49,-1.0,-0.5103514180548898
-0.48,-1.0,-0.47741053895355245
-0.47,-1.0,-0.44258553856309324
-0.45999999999999996,-1.0,-0.40601385525002487
-0.44999999999999996,-1.0,-0.3678398207403711
-0.43999999999999995,-1.0,-0.32821409050828365
-0.42999999999999994,-1.0,-0.2872930492077155
-0.42000000000000004,-1.0,-0.2452381934936334
-0.41000000000000003,-1.0,-0.2022154946685053
-0.4,-1.0,-0.1583947436693926
-0.39,-1.0,-0.11394888098069156
-0.38,-1.0,-0.06905331411705178
-0.37,-1.0,-0.02388522537005026
-0.36,-1.0,0.021377127449365263
-0.35,-1.0,0.06655511451301878
-0.33999999999999997,-1.0,0.11147043894582881
-0.32999999999999996,-1.0,0.15594584048211918
-0.31999999999999995,-1.0,0.1998057950309042
-0.30999999999999994,-1.0,0.24287720738928695
-0.29999999999999993,-1.0,0.2849900943701456
-0.29000000000000004,-1.0,0.3259782556481148
-0.28,-1.0,0.36567992967633967
-0.27,-1.0,0.4039384320854007
-0.26,-1.0,0.4406027740449364
-0.25,-1.0,0.4755282581475768
-0.24,-1.0,0.5085770494635049
-0.22999999999999998,-1.0,0.5396187195119537
-0.21999999999999997,-1.0,0.568530761002831
-0.20999999999999996,-1.0,0.5951990713170283
-0.19999999999999996,-1.0,0.6195184028173281
-0.18999999999999995,-1.0,0.6413927782127435
-0.17999999999999994,-1.0,0.6607358693370404
-0.16999999999999993,-1.0,0.6774713378465693
-0.16000000000000003,-1.0,0.6915331364928319
-0.15000000000000002,-1.0,0.7028657697807947
-0.14,-1.0,0.711424512984259
-0.13,-1.0,0.7171755886539173
-0.12,-1.0,0.72009629992152
-0.10999999999999999,-1.0,0.7201751200740378
-0.09999999999999998,-1.0,0.7174117380443398
-0.08999999999999997,-1.0,0.7118170596388269
-0.07999999999999996,-1.0,0.7034131644972015
-0.06999999999999995,-1.0,0.6922332189542117
-0.05999999999999994,-1.0,0.6783213451472856
-0.04999999999999993,-1.0,0.6617324468866073
-0.040000000000000036,-1.0,0.6425319929748664
-0.030000000000000027,-1.0,0.6207957588317985
-0.020000000000000018,-1.0,0.5966095274432259
-0.010000000000000009,-1.0,0.5700687508148014
0.0,-1.0,0.5412781732665497
0.010000000000000009,-1.0,0.5103514180548898
0.020000000000000018,-1.0,0.4774105389535521
0.030000000000000027,-1.0,0.44258553856309324
0.040000000000000036,-1.0,0.40601385525002476
0.050000000000000044,-1.0,0.367839820740371
0.06000000000000005,-1.0,0.328214090508284
0.07000000000000006,-1.0,0.28729304920771537
0.08000000000000007,-1.0,0.24523819349363335
0.09000000000000008,-1.0,0.2022154946685053
0.10000000000000009,-1.0,0.1583947436693925
0.1100000000000001,-1.0,0.11394888098069146
0.1200000000000001,-1.0,0.0690533141170517
0.13000000000000012,-1.0,0.02388522537005019
0.14000000000000012,-1.0,-0.021377127449365357
0.15000000000000013,-1.0,-0.06655511451301875
0.15999999999999992,-1.0,-0.11147043894582895
0.16999999999999993,-1.0,-0.15594584048211932
0.17999999999999994,-1.0,-0.19980579503090423
0.18999999999999995,-1.0,-0.24287720738928703
0.19999999999999996,-1.0,-0.28499009437014566
0.20999999999999996,-1.0,-0.32597825564811495
0.21999999999999997,-1.0,-0.36567992967633967
0.22999999999999998,-1.0,-0.40393843208540076
0.24,-1.0,-0.4406027740449364
0.25,-1.0,-0.4755282581475766
0.26,-1.0,-0.5085770494635049
0.27,-1.0,-0.5396187195119535
0.28,-1.0,-0.5685307610028308
0.29000000000000004,-1.0,-0.5951990713170283
0.30000000000000004,-1.0,-0.6195184028173281
0.31000000000000005,-1.0,-0.6413927782127433
0.32000000000000006,-1.0,-0.6607358693370404
0.33000000000000007,-1.0,-0.6774713378465693
0.3400000000000001,-1.0,-0.6915331364928314
0.3500000000000001,-1.0,-0.7028657697807947
0.3600000000000001,-1.0,-0.7114245129842587
0.3700000000000001,-1.0,-0.7171755886539175
0.3800000000000001,-1.0,-0.7200962999215199
0.3900000000000001,-1.0,-0.7201751200740378
0.40000000000000013,-1.0,-0.7174117380443397
0.4099999999999999,-1.0,-0.7118170596388271
0.41999999999999993,-1.0,-0.7034131644972014
0.42999999999999994,-1.0,-0.6922332189542119
0.43999999999999995,-1.0,-0.6783213451472849
0.44999999999999996,-1.0,-0.6617324468866073
0.45999999999999996,-1.0,-0.6425319929748663
0.47,-1.0,-0.6207957588317985
0.48,-1.0,-0.5966095274432256
0.49,-1.0,-0.5700687508148018
0.5,-1.0,-0.5412781732665497
0.51,-1.0,-0.51035141805489
0.52,-1.0,-0.477410538953552
0.53,-1.0,-0.44258553856309313
0.54,-1.0,-0.40601385525002476
0.55,-1.0,-0.3678398207403711
0.56,-1.0,-0.328214090508284
0.5700000000000001,-1.0,-0.2872930492077156
0.5800000000000001,-1.0,-0.2452381934936333
0.5900000000000001,-1.0,-0.20221549466850522
0.6000000000000001,-1.0,-0.15839474366939238
0.6100000000000001,-1.0,-0.11394888098069146
0.6200000000000001,-1.0,-0.06905331411705165
0.6300000000000001,-1.0,-0.023885225370050212
0.6400000000000001,-1.0,0.021377127449365305
0.6500000000000001,-1.0,0.0665551145130188
0.6600000000000001,-1.0,0.11147043894582892
0.6699999999999999,-1.0,0.15594584048211924
0.6799999999999999,-1.0,0.19980579503090423
0.69,-1.0,0.2428772073892871
0.7,-1.0,0.28499009437014594
0.71,-1.0,0.3259782556481147
0.72,-1.0,0.3656799296763399
0.73,-1.0,0.4039384320854007
0.74,-1.0,0.4406027740449363
0.75,-1.0,0.4755282581475769
0.76,-1.0,0.5085770494635052
0.77,-1.0,0.5396187195119535
0.78,-1.0,0.568530761002831
0.79,-1.0,0.5951990713170286
0.8,-1.0,0.6195184028173283
0.81,-1.0,0.6413927782127435
0.8200000000000001,-1.0,0.6607358693370409
0.8300000000000001,-1.0,0.6774713378465693
0.8400000000000001,-1.0,0.6915331364928314
0.8500000000000001,-1.0,0.7028657697807946
0.8600000000000001,-1.0,0.7114245129842586
0.8700000000000001,-1.0,0.7171755886539175
0.8800000000000001,-1.0,0.7200962999215197
0.8900000000000001,-1.0,0.7201751200740379
0.9000000000000001,-1.0,0.7174117380443398
0.9100000000000001,-1.0,0.7118170596388269
0.9199999999999999,-1.0,0.7034131644972017
0.9299999999999999,-1.0,0.6922332189542117
0.94,-1.0,0.6783213451472854
0.95,-1.0,0.6617324468866079
0.96,-1.0,0.6425319929748662
0.97,-1.0,0.6207957588317985
0.98,-1.0,0.5966095274432258
0.99,-1.0,0.5700687508148015
1.0,-1.0,0.5412781732665499

-1.0,-0.99,0.5103514180548899
-0.99,-0.99,0.48046033337193816
-0.98,-0.99,0.4486730912546147
-0.97,-0.99,0.41511514142534645
-0.96,-0.99,0.37991892178094105
-0.95,-0.99,0.34322333572071145
-0.94,-0.99,0.3051732039582191
-0.9299999999999999,-0.99,0.2659186929800783
-0.92,-0.99,0.22561472240744038
-0.91,-0.99,0.18442035359902215
-0.9,-0.99,0.14249816190859382
-0.89,-0.99,0.10001359507432994
-0.88,-0.99,0.057134320272172995
-0.87,-0.99,0.014029562410089805
-0.86,-0.99,-0.029130563725328573
-0.85,-0.99,-0.07217572483421175
-0.84,-0.99,-0.11493604133112645
-0.83,-0.99,-0.15724275778218966
-0.8200000000000001,-0.99,-0.19892890890566953
-0.81,-0.99,-0.23982997850767204
-0.8,-0.99,-0.2797845487523999
-0.79,-0.99,-0.3186349372046039
-0.78,-0.99,-0.3562278191301169
-0.77,-0.99,-0.3924148325985336
-0.76,-0.99,-0.42705316399996773
-0.75,-0.99,-0.4600061116651263
-0.74,-0.99,-0.49114362536434436
-0.73,-0.99,-0.5203428195564282
-0.72,-0.99,-0.5474884583617448
-0.71,-0.99,-0.572473410345592
-0.7,-0.99,-0.5951990713170283
-0.69,-0.99,-0.615575753474567
-0.6799999999999999,-0.99,-0.6335230393629521
-0.6699999999999999,-0.99,-0.6489700992441167
-0.6599999999999999,-0.99,-0.6618559706298017
-0.6499999999999999,-0.99,-0.6721297988726419
-0.64,-0.99,-0.6797510378662276
-0.63,-0.99,-0.6846896100620649
-0.62,-0.99,-0.6869260251719151
-0.61,-0.99,-0.6864514570870617
-0.6,-0.99,-0.6832677787109249
-0.59,-0.99,-0.6773875545675718
-0.5800000000000001,-0.99,-0.668833991215277
-0.5700000000000001,-0.99,-0.6576408456608405
-0.56,-0.99,-0.6438522921361038
-0.55,-0.99,-0.6275227477624387
-0.54,-0.99,-0.6087166577912284
-0.53,-0.99,-0.5875082412679046
-0.52,-0.99,-0.5639811981232796
-0.51,-0.99,-0.5382283788481637
-0.5,-0.99,-0.5103514180548898
-0.49,-0.99,-0.4804603333719386
-0.48,-0.99,-0.4486730912546147
-0.47,-0.99,-0.41511514142534656
-0.45999999999999996,-0.99,-0.3799189217809411
-0.44999999999999996,-0.99,-0.34322333572071123
-0.43999999999999995,-0.99,-0.305173203958219
-0.42999999999999994,-0.99,-0.2659186929800783
-0.42000000000000004,-0.99,-0.22561472240744018
-0.41000000000000003,-0.99,-0.18442035359902215
-0.4,-0.99,-0.1424981619085937
-0.39,-0.99,-0.10001359507432991
-0.38,-0.99,-0.0571343202721729
-0.37,-0.99,-0.014029562410089767
-0.36,-0.99,0.029130563725328674
-0.35,-0.99,0.07217572483421177
-0.33999999999999997,-0.99,0.11493604133112652
-0.32999999999999996,-0.99,0.15724275778218977
-0.31999999999999995,-0.99,0.19892890890566947
-0.30999999999999994,-0.99,0.23982997850767207
-0.29999999999999993,-0.99,0.2797845487524
-0.29000000000000004,-0.99,0.31863493720460373
-0.28,-0.99,0.356227819130117
-0.27,-0.99,0.3924148325985336
-0.26,-0.99,0.4270531639999677
-0.25,-0.99,0.46000611166512606
-0.24,-0.99,0.4911436253643445
-0.22999999999999998,-0.99,0.5203428195564281
-0.21999999999999997,-0.99,0.5474884583617448
-0.20999999999999996,-0.99,0.5724734103455922
-0.19999999999999996,-0.99,0.5951990713170288
-0.18999999999999995,-0.99,0.6155757534745667
-0.17999999999999994,-0.99,0.6335230393629517
-0.16999999999999993,-0.99,0.6489700992441174
-0.16000000000000003,-0.99,0.6618559706298022
-0.15000000000000002,-0.99,0.6721297988726418
-0.14,-0.99,0.6797510378662274
-0.13,-0.99,0.6846896100620652
-0.12,-0.99,0.6869260251719151
-0.10999999999999999,-0.99,0.6864514570870617
-0.09999999999999998,-0.99,0.6832677787109248
-0.08999999999999997,-0.99,0.677387554567572
-0.07999999999999996,-0.99,0.6688339912152769
-0.06999999999999995,-0.99,0.6576408456608407
-0.05999999999999994,-0.99,0.6438522921361038
-0.04999999999999993,-0.99,0.6275227477624388
-0.040000000000000036,-0.99,0.6087166577912284
-0.030000000000000027,-0.99,0.5875082412679042
-0.020000000000000018,-0.99,0.5639811981232797
-0.010000000000000009,-0.99,0.5382283788481634
0.0,-0.99,0.5103514180548898
0.010000000000000009,-0.99,0.4804603333719384
0.020000000000000018,-0.99,0.44867309125461474
0.030000000000000027,-0.99,0.41511514142534633
0.040000000000000036,-0.99,0.37991892178094105
0.050000000000000044,-0.99,0.3432233357207116
0.06000000000000005,-0.99,0.3051732039582189
0.07000000000000006,-0.99,0.26591869298007836
0.08000000000000007,-0.99,0.22561472240744024
0.09000000000000008,-0.99,0.18442035359902206
0.10000000000000009,-0.99,0.1424981619085936
0.1100000000000001,-0.99,0.10001359507432984
0.1200000000000001,-0.99,0.057134320272172835
0.13000000000000012,-0.99,0.014029562410089676
0.14000000000000012,-0.99,-0.029130563725328677
0.15000000000000013,-0.99,-0.0721757248342119
0.15999999999999992,-0.99,-0.11493604133112664
0.16999999999999993,-0.99,-0.15724275778218982
0.17999999999999994,-0.99,-0.1989289089056695
0.18999999999999995,-0.99,-0.23982997850767207
0.19999999999999996,-0.99,-0.27978454875240005
0.20999999999999996,-0.99,-0.31863493720460373
0.21999999999999997,-0.99,-0.35622781913011703
0.22999999999999998,-0.99,-0.3924148325985336
0.24,-0.99,-0.42705316399996746
0.25,-0.99,-0.46000611166512606
0.26,-0.99,-0.49114362536434436
0.27,-0.99,-0.5203428195564281
0.28,-0.99,-0.5474884583617448
0.29000000000000004,-0.99,-0.572473410345592
0.30000000000000004,-0.99,-0.5951990713170283
0.31000000000000005,-0.99,-0.615575753474567
0.32000000000000006,-0.99,-0.6335230393629518
0.33000000000000007,-0.99,-0.648970099244117
0.3400000000000001,-0.99,-0.661855970629802
0.3500000000000001,-0.99,-0.6721297988726418
0.3600000000000001,-0.99,-0.6797510378662275
0.3700000000000001,-0.99,-0.6846896100620649
0.3800000000000001,-0.99,-0.6869260251719151
0.3900000000000001,-0.99,-0.6864514570870617
0.40000000000000013,-0.99,-0.6832677787109249
0.4099999999999999,-0.99,-0.6773875545675719
0.41999999999999993,-0.99,-0.668833991215277
0.42999999999999994,-0.99,-0.6576408456608402
0.43999999999999995,-0.99,-0.6438522921361038
0.44999999999999996,-0.99,-0.6275227477624388
0.45999999999999996,-0.99,-0.6087166577912284
0.47,-0.99,-0.587508241267904
0.48,-0.99,-0.5639811981232803
0.49,-0.99,-0.5382283788481635
0.5,-0.99,-0.5103514180548899
0.51,-0.99,-0.48046033337193816
0.52,-0.99,-0.44867309125461474
0.53,-0.99,-0.4151151414253465
0.54,-0.99,-0.379918921780941
0.55,-0.99,-0.3432233357207115
0.56,-0.99,-0.3051732039582191
0.5700000000000001,-0.99,-0.2659186929800783
0.5800000000000001,-0.99,-0.22561472240744013
0.5900000000000001,-0.99,-0.18442035359902192
0.6000000000000001,-0.99,-0.1424981619085936
0.6100000000000001,-0.99,-0.10001359507432975
0.6200000000000001,-0.99,-0.05713432027217284
0.6300000000000001,-0.99,-0.014029562410089718
0.6400000000000001,-0.99,0.02913056372532873
0.6500000000000001,-0.99,0.07217572483421188
0.6600000000000001,-0.99,0.1149360413311266
0.6699999999999999,-0.99,0.15724275778218982
0.6799999999999999,-0.99,0.19892890890566944
0.69,-0.99,0.23982997850767232
0.7,-0.99,0.27978454875239983
0.71,-0.99,0.318634937204604
0.72,-0.99,0.35622781913011703
0.73,-0.99,0.3924148325985336
0.74,-0.99,0.42705316399996773
0.75,-0.99,0.4600061116651264
0.76,-0.99,0.4911436253643444
0.77,-0.99,0.5203428195564284
0.78,-0.99,0.547488458361745
0.79,-0.99,0.5724734103455924
0.8,-0.99,0.5951990713170285
0.81,-0.99,0.6155757534745672
0.8200000000000001,-0.99,0.6335230393629517
0.8300000000000001,-0.99,0.6489700992441172
0.8400000000000001,-0.99,0.661855970629802
0.8500000000000001,-0.99,0.6721297988726416
0.8600000000000001,-0.99,0.6797510378662275
0.8700000000000001,-0.99,0.6846896100620647
0.8800000000000001,-0.99,0.6869260251719154
0.8900000000000001,-0.99,0.6864514570870617
0.9000000000000001,-0.99,0.6832677787109249
0.9100000000000001,-0.99,0.677387554567572
0.9199999999999999,-0.99,0.6688339912152769
0.9299999999999999,-0.99,0.6576408456608405
0.94,-0.99,0.6438522921361045
0.95,-0.99,0.6275227477624385
0.96,-0.99,0.6087166577912285
0.97,-0.99,0.5875082412679041
0.98,-0.99,0.5639811981232798
0.99,-0.99,0.5382283788481638
1.0,-0.99,0.5103514180548899

-1.0,-0.98,0.47741053895355207
-0.99,-0.98,0.4486730912546147
-0.98,-0.98,0.4181649358437326
-0.97,-0.98,0.38600647447246256
-0.96,-0.98,0.3523246218960332
-0.95,-0.98,0.3172523049987891
-0.94,-0.98,0.28092793819250583
-0.9299999999999999,-0.98,0.24349487715794393
-0.92,-0.98,0.2051008530854671
-0.91,-0.98,0.1658973896475287
-0.9,-0.98,0.1260392050039595
-0.89,-0.98,0.08568360120007516
-0.88,-0.98,0.04498984336736793
-0.87,-0.98,0.004118531176794054
-0.86,-0.98,-0.036769034974756726
-0.85,-0.98,-0.07751149054343637
-0.84,-0.98,-0.11794804367057264
-0.83,-0.98,-0.1579191097546768
-0.8200000000000001,-0.98,-0.1972669412589576
-0.81,-0.98,-0.23583625026878238
-0.8,-0.98,-0.2734748213421302
-0.79,-0.98,-0.3100341122344021
-0.78,-0.98,-0.3453698401267977
-0.77,-0.98,-0.37934255104468395
-0.76,-0.98,-0.41181817021872363
-0.75,-0.98,-0.44266853121673533
-0.74,-0.98,-0.4717718817580494
-0.73,-0.98,-0.49901336421413567
-0.72,-0.98,-0.5242854688991894
-0.71,-0.98,-0.5474884583617448
-0.7,-0.98,-0.568530761002831
-0.69,-0.98,-0.5873293324672373
-0.6799999999999999,-0.98,-0.6038099833816433
-0.6699999999999999,-0.98,-0.6179076721461841
-0.6599999999999999,-0.98,-0.6295667616239273
-0.6499999999999999,-0.98,-0.6387412387152349
-0.64,-0.98,-0.6453948959504479
-0.63,-0.98,-0.649501474384225
-0.62,-0.98,-0.6510447672276067
-0.61,-0.98,-0.6500186838088022
-0.6,-0.98,-0.6464272736102937
-0.59,-0.98,-0.6402847102873748
-0.5800000000000001,-0.98,-0.6316152357312111
-0.5700000000000001,-0.98,-0.6204530643971691
-0.56,-0.98,-0.6068422482759938
-0.55,-0.98,-0.5908365030407249
-0.54,-0.98,-0.5724989960554769
-0.53,-0.98,-0.5519020970827098
-0.52,-0.98,-0.529127092672842
-0.51,-0.98,-0.5042638653633683
-0.5,-0.98,-0.47741053895355245
-0.49,-0.98,-0.4486730912546147
-0.48,-0.98,-0.4181649358437328
-0.47,-0.98,-0.3860064744724626
-0.45999999999999996,-0.98,-0.352324621896033
-0.44999999999999996,-0.98,-0.3172523049987889
-0.43999999999999995,-0.98,-0.28092793819250583
-0.42999999999999994,-0.98,-0.2434948771579437
-0.42000000000000004,-0.98,-0.20510085308546713
-0.41000000000000003,-0.98,-0.16589738964752868
-0.4,-0.98,-0.1260392050039595
-0.39,-0.98,-0.08568360120007505
-0.38,-0.98,-0.044989843367367895
-0.37,-0.98,-0.004118531176793983
-0.36,-0.98,0.03676903497475674
-0.35,-0.98,0.07751149054343644
-0.33999999999999997,-0.98,0.11794804367057275
-0.32999999999999996,-0.98,0.15791910975467682
-0.31999999999999995,-0.98,0.19726694125895766
-0.30999999999999994,-0.98,0.23583625026878238
-0.29999999999999993,-0.98,0.2734748213421302
-0.29000000000000004,-0.98,0.3100341122344022
-0.28,-0.98,0.3453698401267976
-0.27,-0.98,0.379342551044684
-0.26,-0.98,0.41181817021872336
-0.25,-0.98,0.44266853121673544
-0.24,-0.98,0.47177188175804935
-0.22999999999999998,-0.98,0.4990133642141356
-0.21999999999999997,-0.98,0.5242854688991896
-0.20999999999999996,-0.98,0.547488458361745
-0.19999999999999996,-0.98,0.5685307610028308
-0.18999999999999995,-0.98,0.587329332467237
-0.17999999999999994,-0.98,0.6038099833816438
-0.16999999999999993,-0.98,0.6179076721461847
-0.16000000000000003,-0.98,0.6295667616239273
-0.15000000000000002,-0.98,0.6387412387152347
-0.14,-0.98,0.6453948959504483
-0.13,-0.98,0.6495014743842251
-0.12,-0.98,0.6510447672276067
-0.10999999999999999,-0.98,0.6500186838088022
-0.09999999999999998,-0.98,0.6464272736102941
-0.08999999999999997,-0.98,0.6402847102873748
-0.07999999999999996,-0.98,0.6316152357312113
-0.06999999999999995,-0.98,0.6204530643971689
-0.05999999999999994,-0.98,0.6068422482759938
-0.04999999999999993,-0.98,0.5908365030407249
-0.040000000000000036,-0.98,0.5724989960554767
-0.030000000000000027,-0.98,0.5519020970827099
-0.020000000000000018,-0.98,0.5291270926728419
-0.010000000000000009,-0.98,0.5042638653633683
0.0,-0.98,0.4774105389535521
0.010000000000000009,-0.98,0.44867309125461474
0.020000000000000018,-0.98,0.41816493584373265
0.030000000000000027,-0.98,0.38600647447246256
0.040000000000000036,-0.98,0.3523246218960333
0.050000000000000044,-0.98,0.317252304998789
0.06000000000000005,-0.98,0.28092793819250594
0.07000000000000006,-0.98,0.24349487715794377
0.08000000000000007,-0.98,0.20510085308546705
0.09000000000000008,-0.98,0.1658973896475285
0.10000000000000009,-0.98,0.12603920500395943
0.1100000000000001,-0.98,0.08568360120007501
0.1200000000000001,-0.98,0.04498984336736781
0.13000000000000012,-0.98,0.004118531176793963
0.14000000000000012,-0.98,-0.036769034974756865
0.15000000000000013,-0.98,-0.07751149054343653
0.15999999999999992,-0.98,-0.11794804367057281
0.16999999999999993,-0.98,-0.15791910975467688
0.17999999999999994,-0.98,-0.19726694125895772
0.18999999999999995,-0.98,-0.23583625026878252
0.19999999999999996,-0.98,-0.27347482134213014
0.20999999999999996,-0.98,-0.31003411223440214
0.21999999999999997,-0.98,-0.34536984012679767
0.22999999999999998,-0.98,-0.3793425510446838
0.24,-0.98,-0.41181817021872336
0.25,-0.98,-0.4426685312167352
0.26,-0.98,-0.47177188175804935
0.27,-0.98,-0.4990133642141356
0.28,-0.98,-0.5242854688991894
0.29000000000000004,-0.98,-0.5474884583617445
0.30000000000000004,-0.98,-0.568530761002831
0.31000000000000005,-0.98,-0.5873293324672371
0.32000000000000006,-0.98,-0.6038099833816434
0.33000000000000007,-0.98,-0.6179076721461845
0.3400000000000001,-0.98,-0.6295667616239274
0.3500000000000001,-0.98,-0.6387412387152349
0.3600000000000001,-0.98,-0.6453948959504479
0.3700000000000001,-0.98,-0.6495014743842251
0.3800000000000001,-0.98,-0.6510447672276066
0.3900000000000001,-0.98,-0.6500186838088023
0.40000000000000013,-0.98,-0.6464272736102938
0.4099999999999999,-0.98,-0.6402847102873748
0.41999999999999993,-0.98,-0.6316152357312108
0.42999999999999994,-0.98,-0.620453064397169
0.43999999999999995,-0.98,-0.6068422482759939
0.44999999999999996,-0.98,-0.590836503040725
0.45999999999999996,-0.98,-0.5724989960554765
0.47,-0.98,-0.5519020970827102
0.48,-0.98,-0.5291270926728419
0.49,-0.98,-0.5042638653633684
0.5,-0.98,-0.477410538953552
0.51,-0.98,-0.44867309125461474
0.52,-0.98,-0.41816493584373277
0.53,-0.98,-0.3860064744724625
0.54,-0.98,-0.3523246218960333
0.55,-0.98,-0.31725230499878904
0.56,-0.98,-0.28092793819250583
0.5700000000000001,-0.98,-0.2434948771579437
0.5800000000000001,-0.98,-0.20510085308546694
0.5900000000000001,-0.98,-0.16589738964752854
0.6000000000000001,-0.98,-0.12603920500395932
0.6100000000000001,-0.98,-0.08568360120007501
0.6200000000000001,-0.98,-0.04498984336736784
0.6300000000000001,-0.98,-0.0041185311767939084
0.6400000000000001,-0.98,0.03676903497475685
0.6500000000000001,-0.98,0.07751149054343652
0.6600000000000001,-0.98,0.11794804367057277
0.6699999999999999,-0.98,0.15791910975467682
0.6799999999999999,-0.98,0.1972669412589579
0.69,-0.98,0.2358362502687823
0.7,-0.98,0.2734748213421303
0.71,-0.98,0.3100341122344022
0.72,-0.98,0.3453698401267977
0.73,-0.98,0.37934255104468395
0.74,-0.98,0.4118181702187237
0.75,-0.98,0.44266853121673533
0.76,-0.98,0.47177188175804946
0.77,-0.98,0.49901336421413583
0.78,-0.98,0.5242854688991896
0.79,-0.98,0.5474884583617448
0.8,-0.98,0.5685307610028312
0.81,-0.98,0.587329332467237
0.8200000000000001,-0.98,0.6038099833816437
0.8300000000000001,-0.98,0.6179076721461845
0.8400000000000001,-0.98,0.6295667616239271
0.8500000000000001,-0.98,0.6387412387152349
0.8600000000000001,-0.98,0.6453948959504477
0.8700000000000001,-0.98,0.6495014743842252
0.8800000000000001,-0.98,0.6510447672276066
0.8900000000000001,-0.98,0.6500186838088022
0.9000000000000001,-0.98,0.6464272736102938
0.9100000000000001,-0.98,0.6402847102873748
0.9199999999999999,-0.98,0.631615235731211
0.9299999999999999,-0.98,0.6204530643971696
0.94,-0.98,0.6068422482759938
0.95,-0.98,0.590836503040725
0.96,-0.98,0.5724989960554766
0.97,-0.98,0.5519020970827098
0.98,-0.98,0.5291270926728421
0.99,-0.98,0.5042638653633684
1.0,-0.98,0.47741053895355207

-1.0,-0.97,0.4425855385630932
-0.99,-0.97,0.4151151414253464
-0.98,-0.97,0.3860064744724626
-0.97,-0.97,0.35537441631441935
-0.96,-0.97,0.3233398576903106
-0.95,-0.97,0.2900292243678276
-0.94,-0.97,0.2555739781985139
-0.9299999999999999,-0.97,0.22011009829789469
-0.92,-0.97,0.18377754439803223
-0.91,-0.97,0.1467197044904045
-0.9,-0.97,0.10908282893901007
-0.89,-0.97,0.0710154532969975
-0.88,-0.97,0.032667812104696214
-0.87,-0.97,-0.00580875401747861
-0.86,-0.97,-0.04426239564131371
-0.85,-0.97,-0.08254135381111763
-0.84,-0.97,-0.12049455896698669
-0.83,-0.97,-0.1579722271473406
-0.8200000000000001,-0.97,-0.19482645111778968
-0.81,-0.97,-0.2309117840934158
-0.8,-0.97,-0.26608581375078455
-0.79,-0.97,-0.30020972426432413
-0.78,-0.97,-0.33314884414896917
-0.77,-0.97,-0.3647731777469877
-0.76,-0.97,-0.3949579182614516
-0.75,-0.97,-0.42358394031164665
-0.74,-0.97,-0.4505382700665266
-0.73,-0.97,-0.47571453110081047
-0.72,-0.97,-0.49901336421413567
-0.71,-0.97,-0.5203428195564284
-0.7,-0.97,-0.5396187195119534
-0.69,-0.97,-0.5567649909099075
-0.6799999999999999,-0.97,-0.5717139652504694
-0.6699999999999999,-0.97,-0.5844066457614537
-0.6599999999999999,-0.97,-0.5947929402316173
-0.6499999999999999,-0.97,-0.6028318587017334
-0.64,-0.97,-0.6084916752332326
-0.63,-0.97,-0.6117500531159896
-0.62,-0.97,-0.6125941330211122
-0.61,-0.97,-0.6110205837508389
-0.6,-0.97,-0.6070356153852523
-0.59,-0.97,-0.600654954773933
-0.5800000000000001,-0.97,-0.5919037834692669
-0.5700000000000001,-0.97,-0.5808166383463642
-0.56,-0.97,-0.56743727530179
-0.55,-0.97,-0.5518184965690318
-0.54,-0.97,-0.5340219423322063
-0.53,-0.97,-0.5141178474604144
-0.52,-0.97,-0.4921847643227983
-0.51,-0.97,-0.46830925277823077
-0.5,-0.97,-0.4425855385630932
-0.49,-0.97,-0.41511514142534667
-0.48,-0.97,-0.38600647447246267
-0.47,-0.97,-0.3553744163144192
-0.45999999999999996,-0.97,-0.3233398576903105
-0.44999999999999996,-0.97,-0.2900292243678275
-0.43999999999999995,-0.97,-0.25557397819851374
-0.42999999999999994,-0.97,-0.22011009829789466
-0.42000000000000004,-0.97,-0.18377754439803223
-0.41000000000000003,-0.97,-0.14671970449040445
-0.4,-0.97,-0.10908282893900997
-0.39,-0.97,-0.07101545329699749
-0.38,-0.97,-0.03266781210469616
-0.37,-0.97,0.005808754017478627
-0.36,-0.97,0.044262395641313804
-0.35,-0.97,0.08254135381111773
-0.33999999999999997,-0.97,0.12049455896698673
-0.32999999999999996,-0.97,0.15797222714734066
-0.31999999999999995,-0.97,0.19482645111778968
-0.30999999999999994,-0.97,0.23091178409341578
-0.29999999999999993,-0.97,0.26608581375078466
-0.29000000000000004,-0.97,0.300209724264324
-0.28,-0.97,0.33314884414896917
-0.27,-0.97,0.36477317774698753
-0.26,-0.97,0.3949579182614516
-0.25,-0.97,0.42358394031164665
-0.24,-0.97,0.4505382700665265
-0.22999999999999998,-0.97,0.47571453110081063
-0.21999999999999997,-0.97,0.49901336421413583
-0.20999999999999996,-0.97,0.5203428195564281
-0.19999999999999996,-0.97,0.5396187195119533
-0.18999999999999995,-0.97,0.5567649909099079
-0.17999999999999994,-0.97,0.5717139652504699
-0.16999999999999993,-0.97,0.5844066457614538
-0.16000000000000003,-0.97,0.5947929402316172
-0.15000000000000002,-0.97,0.6028318587017338
-0.14,-0.97,0.6084916752332324
-0.13,-0.97,0.6117500531159898
-0.12,-0.97,0.6125941330211122
-0.10999999999999999,-0.97,0.6110205837508391
-0.09999999999999998,-0.97,0.6070356153852521
-0.08999999999999997,-0.97,0.6006549547739333
-0.07999999999999996,-0.97,0.5919037834692669
-0.06999999999999995,-0.97,0.5808166383463643
-0.05999999999999994,-0.97,0.5674372753017901
-0.04999999999999993,-0.97,0.5518184965690317
-0.040000000000000036,-0.97,0.5340219423322063
-0.030000000000000027,-0.97,0.5141178474604142
-0.020000000000000018,-0.97,0.49218476432279834
-0.010000000000000009,-0.97,0.4683092527782305
0.0,-0.97,0.44258553856309324
0.010000000000000009,-0.97,0.41511514142534645
0.020000000000000018,-0.97,0.3860064744724626
0.030000000000000027,-0.97,0.35537441631441946
0.040000000000000036,-0.97,0.32333985769031043
0.050000000000000044,-0.97,0.29002922436782763
0.06000000000000005,-0.97,0.2555739781985138
0.07000000000000006,-0.97,0.22011009829789463
0.08000000000000007,-0.97,0.18377754439803207
0.09000000000000008,-0.97,0.1467197044904044
0.10000000000000009,-0.97,0.10908282893900995
0.1100000000000001,-0.97,0.0710154532969974
0.1200000000000001,-0.97,0.03266781210469614
0.13000000000000012,-0.97,-0.005808754017478723
0.14000000000000012,-0.97,-0.04426239564131386
0.15000000000000013,-0.97,-0.08254135381111777
0.15999999999999992,-0.97,-0.12049455896698678
0.16999999999999993,-0.97,-0.15797222714734072
0.17999999999999994,-0.97,-0.19482645111778985
0.18999999999999995,-0.97,-0.23091178409341578
0.19999999999999996,-0.97,-0.26608581375078466
0.20999999999999996,-0.97,-0.30020972426432413
0.21999999999999997,-0.97,-0.333148844148969
0.22999999999999998,-0.97,-0.36477317774698736
0.24,-0.97,-0.3949579182614515
0.25,-0.97,-0.42358394031164665
0.26,-0.97,-0.4505382700665265
0.27,-0.97,-0.4757145311008106
0.28,-0.97,-0.49901336421413545
0.29000000000000004,-0.97,-0.5203428195564284
0.30000000000000004,-0.97,-0.5396187195119534
0.31000000000000005,-0.97,-0.5567649909099075
0.32000000000000006,-0.97,-0.5717139652504697
0.33000000000000007,-0.97,-0.5844066457614538
0.3400000000000001,-0.97,-0.5947929402316172
0.3500000000000001,-0.97,-0.6028318587017334
0.3600000000000001,-0.97,-0.6084916752332326
0.3700000000000001,-0.97,-0.6117500531159897
0.3800000000000001,-0.97,-0.6125941330211122
0.3900000000000001,-0.97,-0.6110205837508388
0.40000000000000013,-0.97,-0.6070356153852522
0.4099999999999999,-0.97,-0.6006549547739328
0.41999999999999993,-0.97,-0.5919037834692669
0.42999999999999994,-0.97,-0.5808166383463645
0.43999999999999995,-0.97,-0.5674372753017902
0.44999999999999996,-0.97,-0.5518184965690317
0.45999999999999996,-0.97,-0.5340219423322068
0.47,-0.97,-0.5141178474604142
0.48,-0.97,-0.49218476432279845
0.49,-0.97,-0.46830925277823043
0.5,-0.97,-0.44258553856309324
0.51,-0.97,-0.4151151414253466
0.52,-0.97,-0.3860064744724625
0.53,-0.97,-0.35537441631441946
0.54,-0.97,-0.3233398576903105
0.55,-0.97,-0.29002922436782763
0.56,-0.97,-0.25557397819851374
0.5700000000000001,-0.97,-0.22011009829789452
0.5800000000000001,-0.97,-0.1837775443980321
0.5900000000000001,-0.97,-0.14671970449040428
0.6000000000000001,-0.97,-0.10908282893900995
0.6100000000000001,-0.97,-0.07101545329699742
0.6200000000000001,-0.97,-0.03266781210469608
0.6300000000000001,-0.97,0.005808754017478723
0.6400000000000001,-0.97,0.044262395641313866
0.6500000000000001,-0.97,0.08254135381111773