TITLE = "Solution" 
VARIABLES = "x", "y", "sol" 
ZONE STRANDID=1, SOLUTIONTIME= 1.1499999999999975, I= 201, J =201, DATAPACKING=POINT 
-1.0,-1.0,0.4719543495032345
-0.99,-1.0,0.44116438902225
-0.98,-1.0,0.40863335424663294
-0.97,-1.0,0.3744896303086259
-0.96,-1.0,0.3388679668878286
-0.95,-1.0,0.30190894641577315
-0.94,-1.0,0.26375842926129206
-0.9299999999999999,-1.0,0.22456697808628084
-0.92,-1.0,0.18448926364365634
-0.91,-1.0,0.1436834543625577
-0.9,-1.0,0.10231059212981632
-0.89,-1.0,0.06053395673120194
-0.88,-1.0,0.018518421460703816
-0.87,-1.0,-0.02357019755903783
-0.86,-1.0,-0.06556579577721287
-0.85,-1.0,-0.10730263575361818
-0.84,-1.0,-0.14861600124861507
-0.83,-1.0,-0.1893428472828762
-0.8200000000000001,-1.0,-0.22932244360143073
-0.81,-1.0,-0.26839700900254904
-0.8,-1.0,-0.3064123340280639
-0.79,-1.0,-0.34321838955764994
-0.78,-1.0,-0.37866991890521895
-0.77,-1.0,-0.412627011080699
-0.76,-1.0,-0.4449556529547936
-0.75,-1.0,-0.4755282581475768
-0.74,-1.0,-0.5042241705536481
-0.73,-1.0,-0.5309301405166552
-0.72,-1.0,-0.5555407717739518
-0.71,-1.0,-0.5779589374074936
-0.7,-1.0,-0.5980961631594096
-0.69,-1.0,-0.6158729765994816
-0.6799999999999999,-1.0,-0.6312192207665142
-0.6699999999999999,-1.0,-0.6440743310458125
-0.6599999999999999,-1.0,-0.6543875741900455
-0.6499999999999999,-1.0,-0.6621182485401951
-0.64,-1.0,-0.6672358446564113
-0.63,-1.0,-0.6697201657248295
-0.62,-1.0,-0.6695614072651719
-0.61,-1.0,-0.6667601958245479
-0.6,-1.0,-0.6613275865047639
-0.59,-1.0,-0.6532850193328795
-0.5800000000000001,-1.0,-0.6426642346472244
-0.5700000000000001,-1.0,-0.6295071478327771
-0.56,-1.0,-0.6138656839002936
-0.55,-1.0,-0.5958015725620096
-0.54,-1.0,-0.5753861046126704
-0.53,-1.0,-0.5526998505773313
-0.52,-1.0,-0.527832342736307
-0.51,-1.0,-0.5008817217821617
-0.5,-1.0,-0.47195434950323445
-0.49,-1.0,-0.4411643890222502
-0.48,-1.0,-0.40863335424663316
-0.47,-1.0,-0.3744896303086258
-0.45999999999999996,-1.0,-0.33886796688782883
-0.44999999999999996,-1.0,-0.30190894641577326
-0.43999999999999995,-1.0,-0.2637584292612921
-0.42999999999999994,-1.0,-0.22456697808628098
-0.42000000000000004,-1.0,-0.18448926364365661
-0.41000000000000003,-1.0,-0.14368345436255794
-0.4,-1.0,-0.10231059212981651
-0.39,-1.0,-0.06053395673120207
-0.38,-1.0,-0.01851842146070392
-0.37,-1.0,0.023570197559037703
-0.36,-1.0,0.06556579577721275
-0.35,-1.0,0.10730263575361794
-0.33999999999999997,-1.0,0.14861600124861504
-0.32999999999999996,-1.0,0.18934284728287612
-0.31999999999999995,-1.0,0.2293224436014305
-0.30999999999999994,-1.0,0.2683970090025489
-0.29999999999999993,-1.0,0.306412334028064
-0.29000000000000004,-1.0,0.34321838955764983
-0.28,-1.0,0.3786699189052189
-0.27,-1.0,0.412627011080699
-0.26,-1.0,0.44495565295479356
-0.25,-1.0,0.47552825814757677
-0.24,-1.0,0.5042241705536483
-0.22999999999999998,-1.0,0.5309301405166552
-0.21999999999999997,-1.0,0.5555407717739522
-0.20999999999999996,-1.0,0.5779589374074935
-0.19999999999999996,-1.0,0.5980961631594097
-0.18999999999999995,-1.0,0.6158729765994817
-0.17999999999999994,-1.0,0.6312192207665139
-0.16999999999999993,-1.0,0.6440743310458125
-0.16000000000000003,-1.0,0.6543875741900456
-0.15000000000000002,-1.0,0.6621182485401952
-0.14,-1.0,0.6672358446564113
-0.13,-1.0,0.66972016572483
-0.12,-1.0,0.6695614072651722
-0.10999999999999999,-1.0,0.6667601958245483
-0.09999999999999998,-1.0,0.6613275865047635
-0.08999999999999997,-1.0,0.6532850193328795
-0.07999999999999996,-1.0,0.6426642346472244
-0.06999999999999995,-1.0,0.6295071478327772
-0.05999999999999994,-1.0,0.6138656839002936
-0.04999999999999993,-1.0,0.5958015725620094
-0.040000000000000036,-1.0,0.5753861046126705
-0.030000000000000027,-1.0,0.5526998505773313
-0.020000000000000018,-1.0,0.527832342736307
-0.010000000000000009,-1.0,0.5008817217821617
0.0,-1.0,0.47195434950323467
0.010000000000000009,-1.0,0.4411643890222502
0.020000000000000018,-1.0,0.40863335424663316
0.030000000000000027,-1.0,0.3744896303086262
0.040000000000000036,-1.0,0.3388679668878286
0.050000000000000044,-1.0,0.30190894641577304
0.06000000000000005,-1.0,0.26375842926129206
0.07000000000000006,-1.0,0.22456697808628087
0.08000000000000007,-1.0,0.1844892636436566
0.09000000000000008,-1.0,0.14368345436255794
0.10000000000000009,-1.0,0.10231059212981644
0.1100000000000001,-1.0,0.0605339567312021
0.1200000000000001,-1.0,0.018518421460703843
0.13000000000000012,-1.0,-0.023570197559037758
0.14000000000000012,-1.0,-0.0655657957772128
0.15000000000000013,-1.0,-0.10730263575361802
0.15999999999999992,-1.0,-0.14861600124861496
0.16999999999999993,-1.0,-0.18934284728287612
0.17999999999999994,-1.0,-0.2293224436014306
0.18999999999999995,-1.0,-0.26839700900254904
0.19999999999999996,-1.0,-0.3064123340280641
0.20999999999999996,-1.0,-0.3432183895576498
0.21999999999999997,-1.0,-0.37866991890521906
0.22999999999999998,-1.0,-0.41262701108069894
0.24,-1.0,-0.44495565295479356
0.25,-1.0,-0.4755282581475767
0.26,-1.0,-0.5042241705536479
0.27,-1.0,-0.5309301405166553
0.28,-1.0,-0.5555407717739514
0.29000000000000004,-1.0,-0.5779589374074936
0.30000000000000004,-1.0,-0.5980961631594097
0.31000000000000005,-1.0,-0.6158729765994817
0.32000000000000006,-1.0,-0.6312192207665142
0.33000000000000007,-1.0,-0.6440743310458124
0.3400000000000001,-1.0,-0.6543875741900457
0.3500000000000001,-1.0,-0.6621182485401951
0.3600000000000001,-1.0,-0.6672358446564113
0.3700000000000001,-1.0,-0.6697201657248294
0.3800000000000001,-1.0,-0.669561407265172
0.3900000000000001,-1.0,-0.6667601958245482
0.40000000000000013,-1.0,-0.6613275865047641
0.4099999999999999,-1.0,-0.6532850193328797
0.41999999999999993,-1.0,-0.6426642346472246
0.42999999999999994,-1.0,-0.6295071478327778
0.43999999999999995,-1.0,-0.6138656839002936
0.44999999999999996,-1.0,-0.5958015725620098
0.45999999999999996,-1.0,-0.5753861046126703
0.47,-1.0,-0.5526998505773316
0.48,-1.0,-0.5278323427363071
0.49,-1.0,-0.5008817217821618
0.5,-1.0,-0.4719543495032342
0.51,-1.0,-0.4411643890222501
0.52,-1.0,-0.40863335424663294
0.53,-1.0,-0.37448963030862603
0.54,-1.0,-0.33886796688782866
0.55,-1.0,-0.30190894641577315
0.56,-1.0,-0.2637584292612919
0.5700000000000001,-1.0,-0.22456697808628098
0.5800000000000001,-1.0,-0.18448926364365648
0.5900000000000001,-1.0,-0.14368345436255775
0.6000000000000001,-1.0,-0.10231059212981641
0.6100000000000001,-1.0,-0.06053395673120203
0.6200000000000001,-1.0,-0.01851842146070385
0.6300000000000001,-1.0,0.02357019755903783
0.6400000000000001,-1.0,0.06556579577721289
0.6500000000000001,-1.0,0.10730263575361804
0.6600000000000001,-1.0,0.14861600124861513
0.6699999999999999,-1.0,0.18934284728287637
0.6799999999999999,-1.0,0.2293224436014306
0.69,-1.0,0.2683970090025489
0.7,-1.0,0.306412334028064
0.71,-1.0,0.34321838955765005
0.72,-1.0,0.3786699189052188
0.73,-1.0,0.412627011080699
0.74,-1.0,0.4449556529547935
0.75,-1.0,0.47552825814757693
0.76,-1.0,0.5042241705536481
0.77,-1.0,0.5309301405166555
0.78,-1.0,0.5555407717739519
0.79,-1.0,0.5779589374074936
0.8,-1.0,0.5980961631594095
0.81,-1.0,0.6158729765994817
0.8200000000000001,-1.0,0.6312192207665139
0.8300000000000001,-1.0,0.6440743310458128
0.8400000000000001,-1.0,0.6543875741900455
0.8500000000000001,-1.0,0.6621182485401953
0.8600000000000001,-1.0,0.6672358446564113
0.8700000000000001,-1.0,0.6697201657248296
0.8800000000000001,-1.0,0.6695614072651722
0.8900000000000001,-1.0,0.6667601958245483
0.9000000000000001,-1.0,0.6613275865047641
0.9100000000000001,-1.0,0.6532850193328796
0.9199999999999999,-1.0,0.6426642346472249
0.9299999999999999,-1.0,0.6295071478327771
0.94,-1.0,0.6138656839002936
0.95,-1.0,0.5958015725620096
0.96,-1.0,0.57538610461267
0.97,-1.0,0.5526998505773317
0.98,-1.0,0.5278323427363073
0.99,-1.0,0.5008817217821615
1.0,-1.0,0.4719543495032345

-1.0,-0.99,0.44116438902224997
-0.99,-0.99,0.4111365096086228
-0.98,-0.99,0.3794860622219749
-0.97,-0.99,0.3463379567184273
-0.96,-0.99,0.3118230135264739
-0.95,-0.99,0.27607744735851536
-0.94,-0.99,0.23924232963362094
-0.9299999999999999,-0.99,0.20146303173308627
-0.92,-0.99,0.1628886512860055
-0.91,-0.99,0.12367142374904505
-0.9,-0.99,0.08396612160264617
-0.89,-0.99,0.0439294435347538
-0.88,-0.99,0.003719396022683342
-0.87,-0.99,-0.036505330246258204
-0.86,-0.99,-0.0765859866544168
-0.85,-0.99,-0.1163643931620595
-0.84,-0.99,-0.1556835625717259
-0.83,-0.99,-0.194388320084976
-0.8200000000000001,-0.99,-0.23232591570642652
-0.81,-0.99,-0.26934662707819834
-0.8,-0.99,-0.30530435036566184
-0.79,-0.99,-0.34005717686252207
-0.78,-0.99,-0.3734679530396522
-0.77,-0.99,-0.4054048218274128
-0.76,-0.99,-0.43574174299526597
-0.75,-0.99,-0.4643589905749834
-0.74,-0.99,-0.4911436253643443
-0.73,-0.99,-0.5159899406465711
-0.72,-0.99,-0.5387998793664467
-0.71,-0.99,-0.5594834211167129
-0.7,-0.99,-0.5779589374074937
-0.69,-0.99,-0.5941535138166487
-0.6799999999999999,-0.99,-0.60800323774969
-0.6699999999999999,-0.99,-0.6194534506735909
-0.6599999999999999,-0.99,-0.6284589638290448
-0.6499999999999999,-0.99,-0.6349842365698557
-0.64,-0.99,-0.6390035166256282
-0.63,-0.99,-0.6405009417342173
-0.62,-0.99,-0.6394706022428268
-0.61,-0.99,-0.635916564430714
-0.6,-0.99,-0.6298528544614354
-0.59,-0.99,-0.6213034030279958
-0.5800000000000001,-0.99,-0.6103019509093294
-0.5700000000000001,-0.99,-0.5968919158108636
-0.56,-0.99,-0.5811262210146695
-0.55,-0.99,-0.563067086515447
-0.54,-0.99,-0.5427857834666305
-0.53,-0.99,-0.5203623529057082
-0.52,-0.99,-0.49588528986881275
-0.51,-0.99,-0.46945119414124453
-0.5,-0.99,-0.4411643890222501
-0.49,-0.99,-0.411136509608623
-0.48,-0.99,-0.3794860622219748
-0.47,-0.99,-0.3463379567184275
-0.45999999999999996,-0.99,-0.311823013526474
-0.44999999999999996,-0.99,-0.27607744735851536
-0.43999999999999995,-0.99,-0.23924232963362105
-0.42999999999999994,-0.99,-0.20146303173308655
-0.42000000000000004,-0.99,-0.16288865128600574
-0.41000000000000003,-0.99,-0.12367142374904522
-0.4,-0.99,-0.0839661216026463
-0.39,-0.99,-0.043929443534753906
-0.38,-0.99,-0.003719396022683452
-0.37,-0.99,0.03650533024625807
-0.36,-0.99,0.07658598665441659
-0.35,-0.99,0.11636439316205942
-0.33999999999999997,-0.99,0.15568356257172578
-0.32999999999999996,-0.99,0.1943883200849758
-0.31999999999999995,-0.99,0.23232591570642644
-0.30999999999999994,-0.99,0.2693466270781985
-0.29999999999999993,-0.99,0.3053043503656617
-0.29000000000000004,-0.99,0.3400571768625221
-0.28,-0.99,0.3734679530396522
-0.27,-0.99,0.40540482182741266
-0.26,-0.99,0.43574174299526586
-0.25,-0.99,0.46435899057498375
-0.24,-0.99,0.4911436253643442
-0.22999999999999998,-0.99,0.5159899406465716
-0.21999999999999997,-0.99,0.5387998793664467
-0.20999999999999996,-0.99,0.559483421116713
-0.19999999999999996,-0.99,0.5779589374074936
-0.18999999999999995,-0.99,0.5941535138166485
-0.17999999999999994,-0.99,0.60800323774969
-0.16999999999999993,-0.99,0.6194534506735908
-0.16000000000000003,-0.99,0.6284589638290449
-0.15000000000000002,-0.99,0.6349842365698559
-0.14,-0.99,0.6390035166256285
-0.13,-0.99,0.6405009417342176
-0.12,-0.99,0.6394706022428271
-0.10999999999999999,-0.99,0.6359165644307136
-0.09999999999999998,-0.99,0.6298528544614352
-0.08999999999999997,-0.99,0.6213034030279958
-0.07999999999999996,-0.99,0.6103019509093294
-0.06999999999999995,-0.99,0.5968919158108635
-0.05999999999999994,-0.99,0.5811262210146695
-0.04999999999999993,-0.99,0.5630670865154473
-0.040000000000000036,-0.99,0.5427857834666306
-0.030000000000000027,-0.99,0.5203623529057082
-0.020000000000000018,-0.99,0.4958852898688127
-0.010000000000000009,-0.99,0.46945119414124475
0.0,-0.99,0.4411643890222501
0.010000000000000009,-0.99,0.411136509608623
0.020000000000000018,-0.99,0.3794860622219751
0.030000000000000027,-0.99,0.3463379567184274
0.040000000000000036,-0.99,0.3118230135264738
0.050000000000000044,-0.99,0.2760774473585153
0.06000000000000005,-0.99,0.23924232963362096
0.07000000000000006,-0.99,0.2014630317330865
0.08000000000000007,-0.99,0.16288865128600577
0.09000000000000008,-0.99,0.12367142374904519
0.10000000000000009,-0.99,0.08396612160264633
0.1100000000000001,-0.99,0.04392944353475382
0.1200000000000001,-0.99,0.0037193960226834114
0.13000000000000012,-0.99,-0.03650533024625813
0.14000000000000012,-0.99,-0.07658598665441668
0.15000000000000013,-0.99,-0.11636439316205935
0.15999999999999992,-0.99,-0.15568356257172578
0.16999999999999993,-0.99,-0.19438832008497586
0.17999999999999994,-0.99,-0.23232591570642652
0.18999999999999995,-0.99,-0.26934662707819856
0.19999999999999996,-0.99,-0.3053043503656617
0.20999999999999996,-0.99,-0.3400571768625221
0.21999999999999997,-0.99,-0.37346795303965213
0.22999999999999998,-0.99,-0.4054048218274127
0.24,-0.99,-0.4357417429952658
0.25,-0.99,-0.4643589905749833
0.26,-0.99,-0.49114362536434447
0.27,-0.99,-0.5159899406465708
0.28,-0.99,-0.5387998793664467
0.29000000000000004,-0.99,-0.559483421116713
0.30000000000000004,-0.99,-0.5779589374074936
0.31000000000000005,-0.99,-0.5941535138166487
0.32000000000000006,-0.99,-0.60800323774969
0.33000000000000007,-0.99,-0.619453450673591
0.3400000000000001,-0.99,-0.6284589638290448
0.3500000000000001,-0.99,-0.6349842365698558
0.3600000000000001,-0.99,-0.6390035166256282
0.3700000000000001,-0.99,-0.6405009417342173
0.3800000000000001,-0.99,-0.6394706022428271
0.3900000000000001,-0.99,-0.6359165644307141
0.40000000000000013,-0.99,-0.6298528544614355
0.4099999999999999,-0.99,-0.6213034030279958
0.41999999999999993,-0.99,-0.6103019509093299
0.42999999999999994,-0.99,-0.5968919158108636
0.43999999999999995,-0.99,-0.5811262210146697
0.44999999999999996,-0.99,-0.5630670865154471
0.45999999999999996,-0.99,-0.542785783466631
0.47,-0.99,-0.5203623529057084
0.48,-0.99,-0.49588528986881286
0.49,-0.99,-0.46945119414124437
0.5,-0.99,-0.4411643890222501
0.51,-0.99,-0.4111365096086229
0.52,-0.99,-0.3794860622219749
0.53,-0.99,-0.3463379567184274
0.54,-0.99,-0.3118230135264739
0.55,-0.99,-0.27607744735851525
0.56,-0.99,-0.23924232963362105
0.5700000000000001,-0.99,-0.20146303173308638
0.5800000000000001,-0.99,-0.1628886512860056
0.5900000000000001,-0.99,-0.12367142374904515
0.6000000000000001,-0.99,-0.08396612160264626
0.6100000000000001,-0.99,-0.043929443534753844
0.6200000000000001,-0.99,-0.003719396022683336
0.6300000000000001,-0.99,0.03650533024625821
0.6400000000000001,-0.99,0.07658598665441668
0.6500000000000001,-0.99,0.11636439316205949
0.6600000000000001,-0.99,0.15568356257172594
0.6699999999999999,-0.99,0.19438832008497586
0.6799999999999999,-0.99,0.2323259157064264
0.69,-0.99,0.2693466270781985
0.7,-0.99,0.30530435036566195
0.71,-0.99,0.34005717686252207
0.72,-0.99,0.37346795303965213
0.73,-0.99,0.4054048218274128
0.74,-0.99,0.4357417429952661
0.75,-0.99,0.46435899057498353
0.76,-0.99,0.49114362536434464
0.77,-0.99,0.5159899406465711
0.78,-0.99,0.5387998793664467
0.79,-0.99,0.5594834211167128
0.8,-0.99,0.5779589374074934
0.81,-0.99,0.5941535138166483
0.8200000000000001,-0.99,0.6080032377496905
0.8300000000000001,-0.99,0.6194534506735907
0.8400000000000001,-0.99,0.6284589638290451
0.8500000000000001,-0.99,0.6349842365698557
0.8600000000000001,-0.99,0.6390035166256283
0.8700000000000001,-0.99,0.6405009417342176
0.8800000000000001,-0.99,0.6394706022428271
0.8900000000000001,-0.99,0.6359165644307141
0.9000000000000001,-0.99,0.6298528544614355
0.9100000000000001,-0.99,0.6213034030279962
0.9199999999999999,-0.99,0.6103019509093293
0.9299999999999999,-0.99,0.5968919158108636
0.94,-0.99,0.5811262210146697
0.95,-0.99,0.5630670865154469
0.96,-0.99,0.542785783466631
0.97,-0.99,0.5203623529057086
0.98,-0.99,0.49588528986881264
0.99,-0.99,0.4694511941412445
1.0,-0.99,0.44116438902224997

-1.0,-0.98,0.4086333542466329
-0.99,-0.98,0.3794860622219749
-0.98,-0.98,0.34884111208041724
-0.97,-0.98,0.3168194454398229
-0.96,-0.98,0.28354743718911407
-0.95,-0.98,0.24915639674432163
-0.94,-0.98,0.21378204983030952
-0.9299999999999999,-0.98,0.17756400283334556
-0.92,-0.98,0.14064519183847496
-0.91,-0.98,0.10317131852609399
-0.9,-0.98,0.06529027515398253
-0.89,-0.98,0.027151560894127576
-0.88,-0.98,-0.011094308172208224
-0.87,-0.98,-0.04929639307269561
-0.86,-0.98,-0.08730392763110484
-0.85,-0.98,-0.12496691347252453
-0.84,-0.98,-0.1621367119984204
-0.83,-0.98,-0.19866663099527618
-0.8200000000000001,-0.98,-0.23441250356174373
-0.81,-0.98,-0.26923325706953943
-0.8,-0.98,-0.3029914699126565
-0.79,-0.98,-0.3355539138476641
-0.78,-0.98,-0.36679207978471606
-0.77,-0.98,-0.39658268495421917
-0.76,-0.98,-0.42480815944760264
-0.75,-0.98,-0.45135711021203345
-0.74,-0.98,-0.47612476066790665
-0.73,-0.98,-0.4990133642141358
-0.72,-0.98,-0.5199325899893321
-0.71,-0.98,-0.5387998793664469
-0.7,-0.98,-0.5555407717739519
-0.69,-0.98,-0.5700891985577021
-0.6799999999999999,-0.98,-0.5823877437237254
-0.6699999999999999,-0.98,-0.5923878705329222
-0.6599999999999999,-0.98,-0.600050113053401
-0.6499999999999999,-0.98,-0.6053442319144778
-0.64,-0.98,-0.6082493336476619
-0.63,-0.98,-0.6087539531436255
-0.62,-0.98,-0.6068560988997594
-0.61,-0.98,-0.6025632608797142
-0.6,-0.98,-0.5958923809539459
-0.59,-0.98,-0.5868697860378852
-0.5800000000000001,-0.98,-0.5755310841916348
-0.5700000000000001,-0.98,-0.5619210240912217
-0.56,-0.98,-0.546093318426017
-0.55,-0.98,-0.5281104319192906
-0.54,-0.98,-0.508043334808485
-0.53,-0.98,-0.48597122275811205
-0.52,-0.98,-0.4619812043106459
-0.51,-0.98,-0.43616795710890116
-0.5,-0.98,-0.40863335424663316
-0.49,-0.98,-0.3794860622219748
-0.48,-0.98,-0.3488411120804175
-0.47,-0.98,-0.3168194454398231
-0.45999999999999996,-0.98,-0.28354743718911396
-0.44999999999999996,-0.98,-0.24915639674432177
-0.43999999999999995,-0.98,-0.2137820498303098
-0.42999999999999994,-0.98,-0.17756400283334584
-0.42000000000000004,-0.98,-0.14064519183847515
-0.41000000000000003,-0.98,-0.1031713185260941
-0.4,-0.98,-0.06529027515398264
-0.39,-0.98,-0.027151560894127683
-0.38,-0.98,0.011094308172208097
-0.37,-0.98,0.04929639307269543
-0.36,-0.98,0.0873039276311047
-0.35,-0.98,0.12496691347252442
-0.33999999999999997,-0.98,0.16213671199842025
-0.32999999999999996,-0.98,0.19866663099527607
-0.31999999999999995,-0.98,0.23441250356174384
-0.30999999999999994,-0.98,0.26923325706953927
-0.29999999999999993,-0.98,0.3029914699126566
-0.29000000000000004,-0.98,0.3355539138476642
-0.28,-0.98,0.36679207978471584
-0.27,-0.98,0.3965826849542191
-0.26,-0.98,0.424808159447603
-0.25,-0.98,0.4513571102120333
-0.24,-0.98,0.4761247606679069
-0.22999999999999998,-0.98,0.4990133642141358
-0.21999999999999997,-0.98,0.5199325899893323
-0.20999999999999996,-0.98,0.5387998793664467
-0.19999999999999996,-0.98,0.5555407717739517
-0.18999999999999995,-0.98,0.5700891985577019
-0.17999999999999994,-0.98,0.5823877437237254
-0.16999999999999993,-0.98,0.5923878705329224
-0.16000000000000003,-0.98,0.6000501130534013
-0.15000000000000002,-0.98,0.6053442319144781
-0.14,-0.98,0.608249333647662
-0.13,-0.98,0.6087539531436259
-0.12,-0.98,0.6068560988997589
-0.10999999999999999,-0.98,0.6025632608797141
-0.09999999999999998,-0.98,0.5958923809539458
-0.08999999999999997,-0.98,0.5868697860378852
-0.07999999999999996,-0.98,0.5755310841916348
-0.06999999999999995,-0.98,0.5619210240912218
-0.05999999999999994,-0.98,0.5460933184260173
-0.04999999999999993,-0.98,0.5281104319192905
-0.040000000000000036,-0.98,0.508043334808485
-0.030000000000000027,-0.98,0.485971222758112
-0.020000000000000018,-0.98,0.46198120431064604
-0.010000000000000009,-0.98,0.43616795710890116
0.0,-0.98,0.40863335424663316
0.010000000000000009,-0.98,0.37948606222197506
0.020000000000000018,-0.98,0.3488411120804173
0.030000000000000027,-0.98,0.3168194454398229
0.040000000000000036,-0.98,0.28354743718911396
0.050000000000000044,-0.98,0.24915639674432172
0.06000000000000005,-0.98,0.21378204983030974
0.07000000000000006,-0.98,0.17756400283334586
0.08000000000000007,-0.98,0.14064519183847513
0.09000000000000008,-0.98,0.10317131852609415
0.10000000000000009,-0.98,0.06529027515398256
0.1100000000000001,-0.98,0.027151560894127638
0.1200000000000001,-0.98,-0.011094308172208151
0.13000000000000012,-0.98,-0.04929639307269552
0.14000000000000012,-0.98,-0.08730392763110466
0.15000000000000013,-0.98,-0.12496691347252445
0.15999999999999992,-0.98,-0.16213671199842028
0.16999999999999993,-0.98,-0.19866663099527612
0.17999999999999994,-0.98,-0.23441250356174387
0.18999999999999995,-0.98,-0.26923325706953927
0.19999999999999996,-0.98,-0.3029914699126567
0.20999999999999996,-0.98,-0.3355539138476641
0.21999999999999997,-0.98,-0.36679207978471584
0.22999999999999998,-0.98,-0.396582684954219
0.24,-0.98,-0.42480815944760264
0.25,-0.98,-0.45135711021203373
0.26,-0.98,-0.4761247606679063
0.27,-0.98,-0.4990133642141358
0.28,-0.98,-0.5199325899893323
0.29000000000000004,-0.98,-0.5387998793664468
0.30000000000000004,-0.98,-0.5555407717739519
0.31000000000000005,-0.98,-0.5700891985577021
0.32000000000000006,-0.98,-0.5823877437237255
0.33000000000000007,-0.98,-0.5923878705329223
0.3400000000000001,-0.98,-0.6000501130534011
0.3500000000000001,-0.98,-0.6053442319144777
0.3600000000000001,-0.98,-0.6082493336476618
0.3700000000000001,-0.98,-0.6087539531436258
0.3800000000000001,-0.98,-0.6068560988997593
0.3900000000000001,-0.98,-0.6025632608797145
0.40000000000000013,-0.98,-0.5958923809539458
0.4099999999999999,-0.98,-0.5868697860378858
0.41999999999999993,-0.98,-0.5755310841916349
0.42999999999999994,-0.98,-0.5619210240912219
0.43999999999999995,-0.98,-0.5460933184260172
0.44999999999999996,-0.98,-0.5281104319192909
0.45999999999999996,-0.98,-0.5080433348084852
0.47,-0.98,-0.4859712227581121
0.48,-0.98,-0.4619812043106457
0.49,-0.98,-0.4361679571089011
0.5,-0.98,-0.40863335424663305
0.51,-0.98,-0.379486062221975
0.52,-0.98,-0.34884111208041735
0.53,-0.98,-0.3168194454398229
0.54,-0.98,-0.2835474371891139
0.55,-0.98,-0.24915639674432175
0.56,-0.98,-0.21378204983030963
0.5700000000000001,-0.98,-0.1775640028333457
0.5800000000000001,-0.98,-0.1406451918384751
0.5900000000000001,-0.98,-0.10317131852609407
0.6000000000000001,-0.98,-0.06529027515398259
0.6100000000000001,-0.98,-0.02715156089412757
0.6200000000000001,-0.98,0.011094308172208219
0.6300000000000001,-0.98,0.049296393072695524
0.6400000000000001,-0.98,0.08730392763110478
0.6500000000000001,-0.98,0.12496691347252457
0.6600000000000001,-0.98,0.16213671199842028
0.6699999999999999,-0.98,0.19866663099527607
0.6799999999999999,-0.98,0.2344125035617438
0.69,-0.98,0.26923325706953943
0.7,-0.98,0.3029914699126567
0.71,-0.98,0.3355539138476641
0.72,-0.98,0.366792079784716
0.73,-0.98,0.3965826849542192
0.74,-0.98,0.42480815944760275
0.75,-0.98,0.4513571102120337
0.76,-0.98,0.47612476066790654
0.77,-0.98,0.4990133642141359
0.78,-0.98,0.5199325899893322
0.79,-0.98,0.5387998793664466
0.8,-0.98,0.5555407717739516
0.81,-0.98,0.5700891985577023
0.8200000000000001,-0.98,0.5823877437237253
0.8300000000000001,-0.98,0.5923878705329226
0.8400000000000001,-0.98,0.6000501130534011
0.8500000000000001,-0.98,0.6053442319144778
0.8600000000000001,-0.98,0.608249333647662
0.8700000000000001,-0.98,0.6087539531436257
0.8800000000000001,-0.98,0.6068560988997594
0.8900000000000001,-0.98,0.6025632608797142
0.9000000000000001,-0.98,0.5958923809539463
0.9100000000000001,-0.98,0.5868697860378851
0.9199999999999999,-0.98,0.575531084191635
0.9299999999999999,-0.98,0.5619210240912218
0.94,-0.98,0.546093318426017
0.95,-0.98,0.5281104319192909
0.96,-0.98,0.5080433348084854
0.97,-0.98,0.48597122275811194
0.98,-0.98,0.4619812043106458
0.99,-0.98,0.436167957108901
1.0,-0.98,0.4086333542466329

-1.0,-0.97,0.3744896303086259
-0.99,-0.97,0.3463379567184273
-0.98,-0.97,0.3168194454398228
-0.97,-0.97,0.286050592551104
-0.96,-0.97,0.25415282865767064
-0.95,-0.97,0.2212520396609082
-0.94,-0.97,0.18747806994404634
-0.9299999999999999,-0.97,0.1529642099356982
-0.92,-0.97,0.11784667007343406
-0.91,-0.97,0.08226404324341248
-0.9,-0.97,0.046356757817575395
-0.89,-0.97,0.010266523447020498
-0.88,-0.97,-0.02586422820125138
-0.87,-0.97,-0.061892905557054845
-0.86,-0.97,-0.09767731989080336
-0.85,-0.97,-0.13307624646746574
-0.84,-0.97,-0.16794998189607482
-0.83,-0.97,-0.20216089547518817
-0.8200000000000001,-0.97,-0.23557397235838906
-0.81,-0.97,-0.26805734639620193
-0.8,-0.97,-0.2994828205515416
-0.79,-0.97,-0.32972637283485057
-0.78,-0.97,-0.3586686457622312
-0.77,-0.97,-0.38619541740490587
-0.76,-0.97,-0.4121980521709867
-0.75,-0.97,-0.436573929540526
-0.74,-0.97,-0.45922684906182487
-0.73,-0.97,-0.4800674100106676
-0.72,-0.97,-0.49901336421413606
-0.71,-0.97,-0.5159899406465711
-0.7,-0.97,-0.5309301405166552
-0.69,-0.97,-0.5437750016810284
-0.6799999999999999,-0.97,-0.5544738313409342
-0.6699999999999999,-0.97,-0.5629844061035354
-0.6599999999999999,-0.97,-0.5692731386183554
-0.6499999999999999,-0.97,-0.5733152101312073
-0.64,-0.97,-0.5750946684324754
-0.63,-0.97,-0.574604490813204
-0.62,-0.97,-0.571846611780513
-0.61,-0.97,-0.5668319154229913
-0.6,-0.97,-0.5595801924561641
-0.59,-0.97,-0.5501200621175849
-0.5800000000000001,-0.97,-0.5384888592197776
-0.5700000000000001,-0.97,-0.5247324868067883
-0.56,-0.97,-0.5089052349958428
-0.55,-0.97,-0.49106956671905494
-0.54,-0.97,-0.4712958712107719
-0.53,-0.97,-0.4496621862134226
-0.52,-0.97,-0.42625388999820046
-0.51,-0.97,-0.4011633644160344
-0.5,-0.97,-0.3744896303086258
-0.49,-0.97,-0.3463379567184276
-0.48,-0.97,-0.3168194454398231
-0.47,-0.97,-0.2860505925511039
-0.45999999999999996,-0.97,-0.25415282865767075
-0.44999999999999996,-0.97,-0.2212520396609085
-0.43999999999999995,-0.97,-0.18747806994404656
-0.42999999999999994,-0.97,-0.15296420993569843
-0.42000000000000004,-0.97,-0.11784667007343419
-0.41000000000000003,-0.97,-0.08226404324341258
-0.4,-0.97,-0.0463567578175755
-0.39,-0.97,-0.010266523447020625
-0.38,-0.97,0.0258642282012512
-0.37,-0.97,0.06189290555705471
-0.36,-0.97,0.09767731989080324
-0.35,-0.97,0.13307624646746558
-0.33999999999999997,-0.97,0.1679499818960747
-0.32999999999999996,-0.97,0.20216089547518828
-0.31999999999999995,-0.97,0.23557397235838895
-0.30999999999999994,-0.97,0.2680573463962018
-0.29999999999999993,-0.97,0.29948282055154163
-0.29000000000000004,-0.97,0.3297263728348505
-0.28,-0.97,0.3586686457622311
-0.27,-0.97,0.386195417404906
-0.26,-0.97,0.41219805217098643
-0.25,-0.97,0.43657392954052615
-0.24,-0.97,0.4592268490618249
-0.22999999999999998,-0.97,0.4800674100106677
-0.21999999999999997,-0.97,0.4990133642141359
-0.20999999999999996,-0.97,0.515989940646571
-0.19999999999999996,-0.97,0.5309301405166551
-0.18999999999999995,-0.97,0.5437750016810285
-0.17999999999999994,-0.97,0.5544738313409343
-0.16999999999999993,-0.97,0.5629844061035357
-0.16000000000000003,-0.97,0.5692731386183556
-0.15000000000000002,-0.97,0.5733152101312071
-0.14,-0.97,0.5750946684324757
-0.13,-0.97,0.5746044908132035
-0.12,-0.97,0.5718466117805128
-0.10999999999999999,-0.97,0.5668319154229913
-0.09999999999999998,-0.97,0.559580192456164
-0.08999999999999997,-0.97,0.5501200621175849
-0.07999999999999996,-0.97,0.5384888592197776
-0.06999999999999995,-0.97,0.5247324868067885
-0.05999999999999994,-0.97,0.5089052349958427
-0.04999999999999993,-0.97,0.491069566719055
-0.040000000000000036,-0.97,0.47129587121077193
-0.030000000000000027,-0.97,0.4496621862134227
-0.020000000000000018,-0.97,0.42625388999820035
-0.010000000000000009,-0.97,0.4011633644160344
0.0,-0.97,0.37448963030862603
0.010000000000000009,-0.97,0.3463379567184273
0.020000000000000018,-0.97,0.31681944543982277
0.030000000000000027,-0.97,0.2860505925511039
0.040000000000000036,-0.97,0.25415282865767075
0.050000000000000044,-0.97,0.2212520396609084
0.06000000000000005,-0.97,0.18747806994404656
0.07000000000000006,-0.97,0.15296420993569837
0.08000000000000007,-0.97,0.11784667007343425
0.09000000000000008,-0.97,0.0822640432434125
0.10000000000000009,-0.97,0.046356757817575464
0.1100000000000001,-0.97,0.010266523447020571
0.1200000000000001,-0.97,-0.025864228201251283
0.13000000000000012,-0.97,-0.06189290555705468
0.14000000000000012,-0.97,-0.09767731989080328
0.15000000000000013,-0.97,-0.13307624646746566
0.15999999999999992,-0.97,-0.1679499818960748
0.16999999999999993,-0.97,-0.20216089547518828
0.17999999999999994,-0.97,-0.23557397235838895
0.18999999999999995,-0.97,-0.26805734639620193
0.19999999999999996,-0.97,-0.2994828205515417
0.20999999999999996,-0.97,-0.3297263728348504
0.21999999999999997,-0.97,-0.35866864576223095
0.22999999999999998,-0.97,-0.3861954174049058
0.24,-0.97,-0.41219805217098693
0.25,-0.97,-0.43657392954052565
0.26,-0.97,-0.4592268490618249
0.27,-0.97,-0.48006741001066777
0.28,-0.97,-0.4990133642141359
0.29000000000000004,-0.97,-0.5159899406465712
0.30000000000000004,-0.97,-0.5309301405166552
0.31000000000000005,-0.97,-0.5437750016810289
0.32000000000000006,-0.97,-0.5544738313409343
0.33000000000000007,-0.97,-0.5629844061035354
0.3400000000000001,-0.97,-0.5692731386183554
0.3500000000000001,-0.97,-0.5733152101312071
0.3600000000000001,-0.97,-0.5750946684324756
0.3700000000000001,-0.97,-0.5746044908132037
0.3800000000000001,-0.97,-0.571846611780513
0.3900000000000001,-0.97,-0.566831915422991
0.40000000000000013,-0.97,-0.5595801924561644
0.4099999999999999,-0.97,-0.5501200621175849
0.41999999999999993,-0.97,-0.5384888592197776
0.42999999999999994,-0.97,-0.5247324868067884
0.43999999999999995,-0.97,-0.5089052349958431
0.44999999999999996,-0.97,-0.4910695667190552
0.45999999999999996,-0.97,-0.47129587121077204
0.47,-0.97,-0.44966218621342247
0.48,-0.97,-0.4262538899982004
0.49,-0.97,-0.40116336441603434
0.5,-0.97,-0.374489630308626
0.51,-0.97,-0.3463379567184273
0.52,-0.97,-0.31681944543982293
0.53,-0.97,-0.28605059255110377
0.54,-0.97,-0.25415282865767075
0.55,-0.97,-0.22125203966090828
0.56,-0.97,-0.1874780699440464
0.5700000000000001,-0.97,-0.15296420993569837
0.5800000000000001,-0.97,-0.11784667007343415
0.5900000000000001,-0.97,-0.08226404324341252
0.6000000000000001,-0.97,-0.04635675781757538
0.6100000000000001,-0.97,-0.010266523447020507
0.6200000000000001,-0.97,0.025864228201251296
0.6300000000000001,-0.97,0.06189290555705477
0.6400000000000001,-0.97,0.09767731989080337
0.6500000000000001,-0.97,0.1330762464674656