TITLE = "Solution" 
VARIABLES = "x", "y", "sol" 
ZONE STRANDID=1, SOLUTIONTIME= 0.15000000000000005, I= 201, J =201, DATAPACKING=POINT 
-1.0,-1.0,0.6257409333432833
-0.99,-1.0,0.5946475101682944
-0.98,-1.0,0.5612072849392774
-0.97,-1.0,0.5255522309478249
-0.96,-1.0,0.4878230624027968
-0.95,-1.0,0.44816867909562297
-0.94,-1.0,0.40674557876085216
-0.9299999999999999,-1.0,0.36371723945109113
-0.92,-1.0,0.31925347436381774
-0.91,-1.0,0.27352976166626874
-0.9,-1.0,0.2267265519632843
-0.89,-1.0,0.1790285561412095
-0.88,-1.0,0.13062401639841265
-0.87,-1.0,0.0817039633393278
-0.86,-1.0,0.03246146206393287
-0.85,-1.0,-0.016909149771997006
-0.84,-1.0,-0.06621302891883254
-0.83,-1.0,-0.11525559549038097
-0.8200000000000001,-1.0,-0.16384330088180182
-0.81,-1.0,-0.2117843916175261
-0.8,-1.0,-0.258889666114621
-0.79,-1.0,-0.30497322137499966
-0.78,-1.0,-0.3498531866596225
-0.77,-1.0,-0.39335244124921753
-0.76,-1.0,-0.4352993134588383
-0.75,-1.0,-0.4755282581475767
-0.74,-1.0,-0.5138805100496029
-0.73,-1.0,-0.5502047103481366
-0.72,-1.0,-0.5843575040195481
-0.71,-1.0,-0.6162041055901438
-0.7,-1.0,-0.6456188310728528
-0.69,-1.0,-0.6724855939845044
-0.6799999999999999,-1.0,-0.696698363486143
-0.6699999999999999,-1.0,-0.7181615828383077
-0.6599999999999999,-1.0,-0.736790546519828
-0.6499999999999999,-1.0,-0.7525117345218163
-0.64,-1.0,-0.7652631024975565
-0.63,-1.0,-0.7749943266231952
-0.62,-1.0,-0.7816670022028804
-0.61,-1.0,-0.7852547952345557
-0.6,-1.0,-0.7857435463382314
-0.59,-1.0,-0.7831313266365902
-0.5800000000000001,-1.0,-0.7774284453673854
-0.5700000000000001,-1.0,-0.7686574091975875
-0.56,-1.0,-0.7568528333998537
-0.55,-1.0,-0.7420613052418594
-0.54,-1.0,-0.7243412001276384
-0.53,-1.0,-0.7037624512165301
-0.52,-1.0,-0.6804062734289513
-0.51,-1.0,-0.6543648429282063
-0.5,-1.0,-0.6257409333432835
-0.49,-1.0,-0.5946475101682944
-0.48,-1.0,-0.5612072849392774
-0.47,-1.0,-0.525552230947825
-0.45999999999999996,-1.0,-0.487823062402797
-0.44999999999999996,-1.0,-0.44816867909562297
-0.43999999999999995,-1.0,-0.4067455787608521
-0.42999999999999994,-1.0,-0.36371723945109113
-0.42000000000000004,-1.0,-0.31925347436381757
-0.41000000000000003,-1.0,-0.2735297616662685
-0.4,-1.0,-0.22672655196328417
-0.39,-1.0,-0.17902855614120936
-0.38,-1.0,-0.13062401639841253
-0.37,-1.0,-0.0817039633393277
-0.36,-1.0,-0.03246146206393283
-0.35,-1.0,0.016909149771997076
-0.33999999999999997,-1.0,0.06621302891883266
-0.32999999999999996,-1.0,0.115255595490381
-0.31999999999999995,-1.0,0.16384330088180182
-0.30999999999999994,-1.0,0.21178439161752613
-0.29999999999999993,-1.0,0.2588896661146211
-0.29000000000000004,-1.0,0.3049732213749997
-0.28,-1.0,0.3498531866596226
-0.27,-1.0,0.39335244124921764
-0.26,-1.0,0.4352993134588384
-0.25,-1.0,0.4755282581475767
-0.24,-1.0,0.5138805100496029
-0.22999999999999998,-1.0,0.5502047103481367
-0.21999999999999997,-1.0,0.5843575040195481
-0.20999999999999996,-1.0,0.6162041055901437
-0.19999999999999996,-1.0,0.6456188310728529
-0.18999999999999995,-1.0,0.6724855939845042
-0.17999999999999994,-1.0,0.6966983634861431
-0.16999999999999993,-1.0,0.7181615828383078
-0.16000000000000003,-1.0,0.7367905465198279
-0.15000000000000002,-1.0,0.7525117345218163
-0.14,-1.0,0.7652631024975567
-0.13,-1.0,0.7749943266231951
-0.12,-1.0,0.7816670022028804
-0.10999999999999999,-1.0,0.7852547952345555
-0.09999999999999998,-1.0,0.7857435463382314
-0.08999999999999997,-1.0,0.7831313266365902
-0.07999999999999996,-1.0,0.7774284453673854
-0.06999999999999995,-1.0,0.7686574091975874
-0.05999999999999994,-1.0,0.7568528333998534
-0.04999999999999993,-1.0,0.7420613052418594
-0.040000000000000036,-1.0,0.7243412001276386
-0.030000000000000027,-1.0,0.7037624512165306
-0.020000000000000018,-1.0,0.6804062734289514
-0.010000000000000009,-1.0,0.6543648429282062
0.0,-1.0,0.6257409333432836
0.010000000000000009,-1.0,0.5946475101682949
0.020000000000000018,-1.0,0.5612072849392773
0.030000000000000027,-1.0,0.5255522309478249
0.040000000000000036,-1.0,0.4878230624027969
0.050000000000000044,-1.0,0.44816867909562297
0.06000000000000005,-1.0,0.40674557876085204
0.07000000000000006,-1.0,0.3637172394510911
0.08000000000000007,-1.0,0.31925347436381735
0.09000000000000008,-1.0,0.27352976166626847
0.10000000000000009,-1.0,0.22672655196328395
0.1100000000000001,-1.0,0.17902855614120927
0.1200000000000001,-1.0,0.13062401639841248
0.13000000000000012,-1.0,0.08170396333932771
0.14000000000000012,-1.0,0.03246146206393287
0.15000000000000013,-1.0,-0.01690914977199699
0.15999999999999992,-1.0,-0.06621302891883253
0.16999999999999993,-1.0,-0.11525559549038089
0.17999999999999994,-1.0,-0.16384330088180166
0.18999999999999995,-1.0,-0.21178439161752605
0.19999999999999996,-1.0,-0.25888966611462105
0.20999999999999996,-1.0,-0.3049732213749996
0.21999999999999997,-1.0,-0.3498531866596227
0.22999999999999998,-1.0,-0.39335244124921764
0.24,-1.0,-0.43529931345883854
0.25,-1.0,-0.47552825814757693
0.26,-1.0,-0.5138805100496031
0.27,-1.0,-0.5502047103481369
0.28,-1.0,-0.5843575040195483
0.29000000000000004,-1.0,-0.6162041055901439
0.30000000000000004,-1.0,-0.6456188310728526
0.31000000000000005,-1.0,-0.6724855939845045
0.32000000000000006,-1.0,-0.6966983634861429
0.33000000000000007,-1.0,-0.7181615828383077
0.3400000000000001,-1.0,-0.7367905465198278
0.3500000000000001,-1.0,-0.7525117345218162
0.3600000000000001,-1.0,-0.7652631024975565
0.3700000000000001,-1.0,-0.7749943266231951
0.3800000000000001,-1.0,-0.7816670022028802
0.3900000000000001,-1.0,-0.7852547952345555
0.40000000000000013,-1.0,-0.7857435463382314
0.4099999999999999,-1.0,-0.7831313266365902
0.41999999999999993,-1.0,-0.7774284453673854
0.42999999999999994,-1.0,-0.7686574091975875
0.43999999999999995,-1.0,-0.7568528333998533
0.44999999999999996,-1.0,-0.7420613052418595
0.45999999999999996,-1.0,-0.7243412001276387
0.47,-1.0,-0.7037624512165305
0.48,-1.0,-0.6804062734289512
0.49,-1.0,-0.6543648429282061
0.5,-1.0,-0.6257409333432833
0.51,-1.0,-0.5946475101682946
0.52,-1.0,-0.5612072849392771
0.53,-1.0,-0.5255522309478247
0.54,-1.0,-0.4878230624027968
0.55,-1.0,-0.44816867909562297
0.56,-1.0,-0.40674557876085216
0.5700000000000001,-1.0,-0.36371723945109125
0.5800000000000001,-1.0,-0.3192534743638177
0.5900000000000001,-1.0,-0.27352976166626863
0.6000000000000001,-1.0,-0.22672655196328428
0.6100000000000001,-1.0,-0.17902855614120955
0.6200000000000001,-1.0,-0.1306240163984127
0.6300000000000001,-1.0,-0.08170396333932789
0.6400000000000001,-1.0,-0.03246146206393301
0.6500000000000001,-1.0,0.016909149771996895
0.6600000000000001,-1.0,0.06621302891883243
0.6699999999999999,-1.0,0.11525559549038085
0.6799999999999999,-1.0,0.1638433008818016
0.69,-1.0,0.211784391617526
0.7,-1.0,0.25888966611462105
0.71,-1.0,0.3049732213749996
0.72,-1.0,0.3498531866596226
0.73,-1.0,0.39335244124921764
0.74,-1.0,0.4352993134588384
0.75,-1.0,0.4755282581475769
0.76,-1.0,0.5138805100496031
0.77,-1.0,0.5502047103481368
0.78,-1.0,0.5843575040195481
0.79,-1.0,0.6162041055901437
0.8,-1.0,0.6456188310728527
0.81,-1.0,0.6724855939845044
0.8200000000000001,-1.0,0.6966983634861429
0.8300000000000001,-1.0,0.7181615828383074
0.8400000000000001,-1.0,0.7367905465198277
0.8500000000000001,-1.0,0.7525117345218162
0.8600000000000001,-1.0,0.7652631024975567
0.8700000000000001,-1.0,0.7749943266231951
0.8800000000000001,-1.0,0.7816670022028802
0.8900000000000001,-1.0,0.7852547952345557
0.9000000000000001,-1.0,0.7857435463382313
0.9100000000000001,-1.0,0.7831313266365905
0.9199999999999999,-1.0,0.7774284453673854
0.9299999999999999,-1.0,0.7686574091975876
0.94,-1.0,0.7568528333998535
0.95,-1.0,0.7420613052418595
0.96,-1.0,0.7243412001276386
0.97,-1.0,0.7037624512165304
0.98,-1.0,0.6804062734289513
0.99,-1.0,0.6543648429282062
1.0,-1.0,0.6257409333432833

-1.0,-0.99,0.5946475101682944
-0.99,-0.99,0.564923093448672
-0.98,-0.99,0.5329691833680194
-0.97,-0.99,0.4989118874110717
-0.96,-0.99,0.46288561416567287
-0.95,-0.99,0.4250325428734836
-0.94,-0.99,0.38550206231347084
-0.9299999999999999,-0.99,0.34445018123264665
-0.92,-0.99,0.30203891265081617
-0.91,-0.99,0.25843563446920637
-0.9,-0.99,0.2138124289063571
-0.89,-0.99,0.16834540336822162
-0.88,-0.99,0.12221399543269079
-0.87,-0.99,0.07560026469145056
-0.86,-0.99,0.028688174243948844
-0.85,-0.99,-0.018337135320913685
-0.84,-0.99,-0.06529007659010483
-0.83,-0.99,-0.11198534775519352
-0.8200000000000001,-0.99,-0.1582386639139312
-0.81,-0.99,-0.20386748435856963
-0.8,-0.99,-0.24869173298063907
-0.79,-0.99,-0.29253450894907906
-0.78,-0.99,-0.33522278485700163
-0.77,-0.99,-0.37658808958181644
-0.76,-0.99,-0.41646717316378457
-0.75,-0.99,-0.45470265107902824
-0.74,-0.99,-0.49114362536434425
-0.73,-0.99,-0.5256462801425261
-0.72,-0.99,-0.558074449197928
-0.71,-0.99,-0.5883001533623091
-0.7,-0.99,-0.6162041055901437
-0.69,-0.99,-0.6416761817300913
-0.6799999999999999,-0.99,-0.6646158551347128
-0.6699999999999999,-0.99,-0.6849325933932198
-0.6599999999999999,-0.99,-0.7025462156215402
-0.6499999999999999,-0.99,-0.7173872088996377
-0.64,-0.99,-0.7293970026072494
-0.63,-0.99,-0.7385281995753628
-0.62,-0.99,-0.7447447631411925
-0.61,-0.99,-0.7480221593684224
-0.6,-0.99,-0.7483474538714425
-0.59,-0.99,-0.7457193628614633
-0.5800000000000001,-0.99,-0.74014825821304
-0.5700000000000001,-0.99,-0.7316561265310244
-0.56,-0.99,-0.7202764823794798
-0.55,-0.99,-0.7060542360150068
-0.54,-0.99,-0.6890455161464804
-0.53,-0.99,-0.6693174484206765
-0.52,-0.99,-0.6469478905080117
-0.51,-0.99,-0.6220251248338887
-0.5,-0.99,-0.5946475101682944
-0.49,-0.99,-0.5649230934486722
-0.48,-0.99,-0.5329691833680195
-0.47,-0.99,-0.49891188741107184
-0.45999999999999996,-0.99,-0.4628856141656728
-0.44999999999999996,-0.99,-0.4250325428734836
-0.43999999999999995,-0.99,-0.38550206231347084
-0.42999999999999994,-0.99,-0.3444501812326466
-0.42000000000000004,-0.99,-0.30203891265081595
-0.41000000000000003,-0.99,-0.25843563446920625
-0.4,-0.99,-0.21381242890635696
-0.39,-0.99,-0.16834540336822154
-0.38,-0.99,-0.1222139954326907
-0.37,-0.99,-0.07560026469145054
-0.36,-0.99,-0.028688174243948764
-0.35,-0.99,0.018337135320913772
-0.33999999999999997,-0.99,0.06529007659010486
-0.32999999999999996,-0.99,0.11198534775519355
-0.31999999999999995,-0.99,0.15823866391393127
-0.30999999999999994,-0.99,0.20386748435856966
-0.29999999999999993,-0.99,0.24869173298063904
-0.29000000000000004,-0.99,0.2925345089490792
-0.28,-0.99,0.33522278485700174
-0.27,-0.99,0.37658808958181644
-0.26,-0.99,0.41646717316378457
-0.25,-0.99,0.4547026510790282
-0.24,-0.99,0.4911436253643444
-0.22999999999999998,-0.99,0.525646280142526
-0.21999999999999997,-0.99,0.558074449197928
-0.20999999999999996,-0.99,0.5883001533623093
-0.19999999999999996,-0.99,0.6162041055901436
-0.18999999999999995,-0.99,0.6416761817300917
-0.17999999999999994,-0.99,0.6646158551347129
-0.16999999999999993,-0.99,0.6849325933932197
-0.16000000000000003,-0.99,0.7025462156215402
-0.15000000000000002,-0.99,0.7173872088996378
-0.14,-0.99,0.7293970026072492
-0.13,-0.99,0.7385281995753628
-0.12,-0.99,0.7447447631411926
-0.10999999999999999,-0.99,0.7480221593684224
-0.09999999999999998,-0.99,0.7483474538714427
-0.08999999999999997,-0.99,0.7457193628614635
-0.07999999999999996,-0.99,0.74014825821304
-0.06999999999999995,-0.99,0.7316561265310244
-0.05999999999999994,-0.99,0.7202764823794798
-0.04999999999999993,-0.99,0.706054236015007
-0.040000000000000036,-0.99,0.6890455161464807
-0.030000000000000027,-0.99,0.6693174484206765
-0.020000000000000018,-0.99,0.6469478905080117
-0.010000000000000009,-0.99,0.6220251248338887
0.0,-0.99,0.5946475101682946
0.010000000000000009,-0.99,0.5649230934486723
0.020000000000000018,-0.99,0.5329691833680194
0.030000000000000027,-0.99,0.49891188741107173
0.040000000000000036,-0.99,0.46288561416567287
0.050000000000000044,-0.99,0.4250325428734835
0.06000000000000005,-0.99,0.3855020623134708
0.07000000000000006,-0.99,0.34445018123264637
0.08000000000000007,-0.99,0.3020389126508159
0.09000000000000008,-0.99,0.2584356344692059
0.10000000000000009,-0.99,0.21381242890635685
0.1100000000000001,-0.99,0.1683454033682214
0.1200000000000001,-0.99,0.12221399543269063
0.13000000000000012,-0.99,0.07560026469145051
0.14000000000000012,-0.99,0.02868817424394882
0.15000000000000013,-0.99,-0.018337135320913692
0.15999999999999992,-0.99,-0.06529007659010476
0.16999999999999993,-0.99,-0.11198534775519342
0.17999999999999994,-0.99,-0.15823866391393118
0.18999999999999995,-0.99,-0.20386748435856963
0.19999999999999996,-0.99,-0.24869173298063899
0.20999999999999996,-0.99,-0.2925345089490792
0.21999999999999997,-0.99,-0.33522278485700174
0.22999999999999998,-0.99,-0.3765880895818165
0.24,-0.99,-0.41646717316378473
0.25,-0.99,-0.4547026510790285
0.26,-0.99,-0.4911436253643446
0.27,-0.99,-0.5256462801425263
0.28,-0.99,-0.5580744491979281
0.29000000000000004,-0.99,-0.5883001533623091
0.30000000000000004,-0.99,-0.6162041055901438
0.31000000000000005,-0.99,-0.6416761817300913
0.32000000000000006,-0.99,-0.6646158551347129
0.33000000000000007,-0.99,-0.6849325933932197
0.3400000000000001,-0.99,-0.7025462156215401
0.3500000000000001,-0.99,-0.7173872088996377
0.3600000000000001,-0.99,-0.7293970026072492
0.3700000000000001,-0.99,-0.7385281995753626
0.3800000000000001,-0.99,-0.7447447631411926
0.3900000000000001,-0.99,-0.7480221593684224
0.40000000000000013,-0.99,-0.7483474538714425
0.4099999999999999,-0.99,-0.7457193628614635
0.41999999999999993,-0.99,-0.7401482582130401
0.42999999999999994,-0.99,-0.7316561265310242
0.43999999999999995,-0.99,-0.7202764823794797
0.44999999999999996,-0.99,-0.7060542360150072
0.45999999999999996,-0.99,-0.6890455161464806
0.47,-0.99,-0.6693174484206763
0.48,-0.99,-0.6469478905080115
0.49,-0.99,-0.6220251248338885
0.5,-0.99,-0.5946475101682948
0.51,-0.99,-0.564923093448672
0.52,-0.99,-0.5329691833680192
0.53,-0.99,-0.49891188741107173
0.54,-0.99,-0.4628856141656727
0.55,-0.99,-0.4250325428734835
0.56,-0.99,-0.38550206231347095
0.5700000000000001,-0.99,-0.3444501812326466
0.5800000000000001,-0.99,-0.302038912650816
0.5900000000000001,-0.99,-0.25843563446920637
0.6000000000000001,-0.99,-0.2138124289063571
0.6100000000000001,-0.99,-0.16834540336822168
0.6200000000000001,-0.99,-0.12221399543269088
0.6300000000000001,-0.99,-0.0756002646914507
0.6400000000000001,-0.99,-0.028688174243948938
0.6500000000000001,-0.99,0.01833713532091357
0.6600000000000001,-0.99,0.06529007659010469
0.6699999999999999,-0.99,0.11198534775519332
0.6799999999999999,-0.99,0.15823866391393115
0.69,-0.99,0.20386748435856958
0.7,-0.99,0.24869173298063893
0.71,-0.99,0.29253450894907906
0.72,-0.99,0.33522278485700174
0.73,-0.99,0.37658808958181633
0.74,-0.99,0.41646717316378457
0.75,-0.99,0.4547026510790284
0.76,-0.99,0.49114362536434447
0.77,-0.99,0.5256462801425261
0.78,-0.99,0.5580744491979279
0.79,-0.99,0.5883001533623091
0.8,-0.99,0.6162041055901437
0.81,-0.99,0.6416761817300914
0.8200000000000001,-0.99,0.6646158551347127
0.8300000000000001,-0.99,0.6849325933932194
0.8400000000000001,-0.99,0.7025462156215401
0.8500000000000001,-0.99,0.7173872088996378
0.8600000000000001,-0.99,0.7293970026072493
0.8700000000000001,-0.99,0.7385281995753625
0.8800000000000001,-0.99,0.7447447631411928
0.8900000000000001,-0.99,0.7480221593684223
0.9000000000000001,-0.99,0.7483474538714429
0.9100000000000001,-0.99,0.7457193628614633
0.9199999999999999,-0.99,0.7401482582130401
0.9299999999999999,-0.99,0.7316561265310244
0.94,-0.99,0.7202764823794797
0.95,-0.99,0.706054236015007
0.96,-0.99,0.6890455161464806
0.97,-0.99,0.6693174484206765
0.98,-0.99,0.6469478905080117
0.99,-0.99,0.6220251248338884
1.0,-0.99,0.5946475101682944

-1.0,-0.98,0.5612072849392771
-0.99,-0.98,0.5329691833680194
-0.98,-0.98,0.5026276959204665
-0.97,-0.98,0.47030256658586733
-0.96,-0.98,0.43612136788175837
-0.95,-0.98,0.4002189973835207
-0.94,-0.98,0.36273714534527807
-0.9299999999999999,-0.98,0.32382373551319593
-0.92,-0.98,0.2836323413380354
-0.91,-0.98,0.24232157989090455
-0.9,-0.98,0.20005448587414376
-0.89,-0.98,0.15699786819783842
-0.88,-0.98,0.11332165166125958
-0.87,-0.98,0.06919820633731186
-0.86,-0.98,0.024801667306604033
-0.85,-0.98,-0.01969275257415898
-0.84,-0.98,-0.06410945415727465
-0.83,-0.98,-0.10827314501365509
-0.8200000000000001,-0.98,-0.15200953123196143
-0.81,-0.98,-0.19514600527704418
-0.8,-0.98,-0.23751232719302773
-0.79,-0.98,-0.27894129646264104
-0.78,-0.98,-0.319269411871273
-0.77,-0.98,-0.35833751677156866
-0.76,-0.98,-0.3959914272020063
-0.75,-0.98,-0.432082540380552
-0.74,-0.98,-0.4664684211719515
-0.73,-0.98,-0.4990133642141357
-0.72,-0.98,-0.5295889294852871
-0.71,-0.98,-0.5580744491979279
-0.7,-0.98,-0.584357504019548
-0.69,-0.98,-0.6083343667403522
-0.6799999999999999,-0.98,-0.6299104116371683
-0.6699999999999999,-0.98,-0.6490004879179453
-0.6599999999999999,-0.98,-0.6655292557730295
-0.6499999999999999,-0.98,-0.6794314837069733
-0.64,-0.98,-0.690652305977444
-0.63,-0.98,-0.6991474391252468
-0.62,-0.98,-0.7048833567409047
-0.61,-0.98,-0.7078374217780796
-0.6,-0.98,-0.7079979758916544
-0.59,-0.98,-0.7053643854478924
-0.5800000000000001,-0.98,-0.6999470440251023
-0.5700000000000001,-0.98,-0.6917673313949325
-0.56,-0.98,-0.6808575291461778
-0.55,-0.98,-0.6672606932841008
-0.54,-0.98,-0.651030484308045
-0.53,-0.98,-0.6322309554379617
-0.52,-0.98,-0.6109362998256138
-0.51,-0.98,-0.5872305577481001
-0.5,-0.98,-0.5612072849392773
-0.49,-0.98,-0.5329691833680196
-0.48,-0.98,-0.5026276959204665
-0.47,-0.98,-0.4703025665858672
-0.45999999999999996,-0.98,-0.4361213678817584
-0.44999999999999996,-0.98,-0.4002189973835206
-0.43999999999999995,-0.98,-0.3627371453452781
-0.42999999999999994,-0.98,-0.32382373551319565
-0.42000000000000004,-0.98,-0.2836323413380352
-0.41000000000000003,-0.98,-0.24232157989090444
-0.4,-0.98,-0.20005448587414362
-0.39,-0.98,-0.15699786819783831
-0.38,-0.98,-0.11332165166125954
-0.37,-0.98,-0.06919820633731177
-0.36,-0.98,-0.024801667306603943
-0.35,-0.98,0.019692752574159027
-0.33999999999999997,-0.98,0.06410945415727469
-0.32999999999999996,-0.98,0.10827314501365512
-0.31999999999999995,-0.98,0.15200953123196143
-0.30999999999999994,-0.98,0.19514600527704418
-0.29999999999999993,-0.98,0.23751232719302776
-0.29000000000000004,-0.98,0.2789412964626412
-0.28,-0.98,0.319269411871273
-0.27,-0.98,0.35833751677156866
-0.26,-0.98,0.3959914272020063
-0.25,-0.98,0.43208254038055205
-0.24,-0.98,0.4664684211719514
-0.22999999999999998,-0.98,0.49901336421413567
-0.21999999999999997,-0.98,0.5295889294852874
-0.20999999999999996,-0.98,0.5580744491979279
-0.19999999999999996,-0.98,0.5843575040195481
-0.18999999999999995,-0.98,0.6083343667403524
-0.17999999999999994,-0.98,0.6299104116371682
-0.16999999999999993,-0.98,0.6490004879179453
-0.16000000000000003,-0.98,0.6655292557730296
-0.15000000000000002,-0.98,0.679431483706973
-0.14,-0.98,0.6906523059774441
-0.13,-0.98,0.6991474391252469
-0.12,-0.98,0.7048833567409047
-0.10999999999999999,-0.98,0.7078374217780797
-0.09999999999999998,-0.98,0.7079979758916545
-0.08999999999999997,-0.98,0.7053643854478924
-0.07999999999999996,-0.98,0.6999470440251022
-0.06999999999999995,-0.98,0.6917673313949324
-0.05999999999999994,-0.98,0.680857529146178
-0.04999999999999993,-0.98,0.6672606932841009
-0.040000000000000036,-0.98,0.651030484308045
-0.030000000000000027,-0.98,0.6322309554379619
-0.020000000000000018,-0.98,0.6109362998256139
-0.010000000000000009,-0.98,0.5872305577481003
0.0,-0.98,0.5612072849392775
0.010000000000000009,-0.98,0.5329691833680194
0.020000000000000018,-0.98,0.5026276959204665
0.030000000000000027,-0.98,0.4703025665858674
0.040000000000000036,-0.98,0.4361213678817585
0.050000000000000044,-0.98,0.40021899738352074
0.06000000000000005,-0.98,0.3627371453452779
0.07000000000000006,-0.98,0.32382373551319565
0.08000000000000007,-0.98,0.28363234133803494
0.09000000000000008,-0.98,0.24232157989090425
0.10000000000000009,-0.98,0.2000544858741434
0.1100000000000001,-0.98,0.15699786819783818
0.1200000000000001,-0.98,0.11332165166125946
0.13000000000000012,-0.98,0.06919820633731177
0.14000000000000012,-0.98,0.024801667306603985
0.15000000000000013,-0.98,-0.01969275257415894
0.15999999999999992,-0.98,-0.06410945415727458
0.16999999999999993,-0.98,-0.10827314501365505
0.17999999999999994,-0.98,-0.15200953123196137
0.18999999999999995,-0.98,-0.1951460052770441
0.19999999999999996,-0.98,-0.2375123271930277
0.20999999999999996,-0.98,-0.2789412964626411
0.21999999999999997,-0.98,-0.319269411871273
0.22999999999999998,-0.98,-0.3583375167715689
0.24,-0.98,-0.3959914272020065
0.25,-0.98,-0.43208254038055227
0.26,-0.98,-0.46646842117195164
0.27,-0.98,-0.4990133642141359
0.28,-0.98,-0.5295889294852872
0.29000000000000004,-0.98,-0.5580744491979279
0.30000000000000004,-0.98,-0.584357504019548
0.31000000000000005,-0.98,-0.6083343667403522
0.32000000000000006,-0.98,-0.6299104116371682
0.33000000000000007,-0.98,-0.6490004879179454
0.3400000000000001,-0.98,-0.6655292557730296
0.3500000000000001,-0.98,-0.6794314837069731
0.3600000000000001,-0.98,-0.6906523059774438
0.3700000000000001,-0.98,-0.6991474391252468
0.3800000000000001,-0.98,-0.7048833567409047
0.3900000000000001,-0.98,-0.7078374217780796
0.40000000000000013,-0.98,-0.7079979758916545
0.4099999999999999,-0.98,-0.7053643854478924
0.41999999999999993,-0.98,-0.6999470440251022
0.42999999999999994,-0.98,-0.6917673313949322
0.43999999999999995,-0.98,-0.680857529146178
0.44999999999999996,-0.98,-0.6672606932841008
0.45999999999999996,-0.98,-0.6510304843080449
0.47,-0.98,-0.6322309554379617
0.48,-0.98,-0.6109362998256136
0.49,-0.98,-0.5872305577481003
0.5,-0.98,-0.5612072849392772
0.51,-0.98,-0.5329691833680192
0.52,-0.98,-0.5026276959204665
0.53,-0.98,-0.4703025665858671
0.54,-0.98,-0.43612136788175837
0.55,-0.98,-0.40021899738352074
0.56,-0.98,-0.362737145345278
0.5700000000000001,-0.98,-0.3238237355131957
0.5800000000000001,-0.98,-0.2836323413380354
0.5900000000000001,-0.98,-0.24232157989090458
0.6000000000000001,-0.98,-0.2000544858741437
0.6100000000000001,-0.98,-0.15699786819783848
0.6200000000000001,-0.98,-0.11332165166125971
0.6300000000000001,-0.98,-0.06919820633731194
0.6400000000000001,-0.98,-0.02480166730660413
0.6500000000000001,-0.98,0.01969275257415886
0.6600000000000001,-0.98,0.06410945415727451
0.6699999999999999,-0.98,0.10827314501365501
0.6799999999999999,-0.98,0.15200953123196131
0.69,-0.98,0.19514600527704407
0.7,-0.98,0.2375123271930276
0.71,-0.98,0.2789412964626411
0.72,-0.98,0.3192694118712729
0.73,-0.98,0.3583375167715688
0.74,-0.98,0.3959914272020064
0.75,-0.98,0.4320825403805522
0.76,-0.98,0.4664684211719516
0.77,-0.98,0.4990133642141357
0.78,-0.98,0.5295889294852872
0.79,-0.98,0.5580744491979279
0.8,-0.98,0.5843575040195481
0.81,-0.98,0.608334366740352
0.8200000000000001,-0.98,0.629910411637168
0.8300000000000001,-0.98,0.6490004879179453
0.8400000000000001,-0.98,0.6655292557730297
0.8500000000000001,-0.98,0.679431483706973
0.8600000000000001,-0.98,0.6906523059774438
0.8700000000000001,-0.98,0.6991474391252468
0.8800000000000001,-0.98,0.7048833567409045
0.8900000000000001,-0.98,0.7078374217780798
0.9000000000000001,-0.98,0.7079979758916544
0.9100000000000001,-0.98,0.7053643854478924
0.9199999999999999,-0.98,0.6999470440251023
0.9299999999999999,-0.98,0.6917673313949324
0.94,-0.98,0.6808575291461779
0.95,-0.98,0.6672606932841009
0.96,-0.98,0.651030484308045
0.97,-0.98,0.6322309554379619
0.98,-0.98,0.6109362998256137
0.99,-0.98,0.5872305577481001
1.0,-0.98,0.5612072849392771

-1.0,-0.97,0.5255522309478249
-0.99,-0.97,0.49891188741107173
-0.98,-0.97,0.47030256658586733
-0.97,-0.97,0.43983717639115316
-0.96,-0.97,0.4076359498037152
-0.95,-0.97,0.3738259703535529
-0.94,-0.97,0.3385406705832457
-0.9299999999999999,-0.97,0.30191930545066686
-0.92,-0.97,0.26410640275328434
-0.91,-0.97,0.2252511927429728
-0.9,-0.97,0.18550701918238593
-0.89,-0.97,0.14503073416718168
-0.88,-0.97,0.10398207910245952
-0.87,-0.97,0.06252305427641307
-0.86,-0.97,0.020817279519204035
-0.85,-0.97,-0.020970651529756922
-0.84,-0.97,-0.06267582099770927
-0.83,-0.97,-0.10413363763404257
-0.8200000000000001,-0.97,-0.14518048637676806
-0.81,-0.97,-0.18565437406641955
-0.8,-0.97,-0.22539556875904626
-0.79,-0.97,-0.26424723011522167
-0.78,-0.97,-0.302056028377208
-0.77,-0.97,-0.3386727494914628
-0.76,-0.97,-0.3739528839883362
-0.75,-0.97,-0.40775719729492954
-0.74,-0.97,-0.43995227923034347
-0.73,-0.97,-0.47041107051471254
-0.72,-0.97,-0.49901336421413567
-0.71,-0.97,-0.5256462801425261
-0.7,-0.97,-0.5502047103481364
-0.69,-0.97,-0.5725917339266248
-0.6799999999999999,-0.97,-0.5927189995235849
-0.6699999999999999,-0.97,-0.6105070740169782
-0.6599999999999999,-0.97,-0.6258857560033784
-0.6499999999999999,-0.97,-0.6387943528508357
-0.64,-0.97,-0.6491819202249707
-0.63,-0.97,-0.6570074631429859
-0.62,-0.97,-0.6622400977621338
-0.61,-0.97,-0.6648591732641367
-0.6,-0.97,-0.6648543533545295
-0.59,-0.97,-0.6622256570552936
-0.5800000000000001,-0.97,-0.6569834586297849
-0.5700000000000001,-0.97,-0.6491484466402558
-0.56,-0.97,-0.6387515422995532
-0.55,-0.97,-0.625833777439216
-0.54,-0.97,-0.6104461325755821
-0.53,-0.97,-0.5926493357129823
-0.52,-0.97,-0.5725136226780503
-0.51,-0.97,-0.5501184599310024
-0.5,-0.97,-0.525552230947825
-0.49,-0.97,-0.4989118874110717
-0.48,-0.97,-0.4703025665858673
-0.47,-0.97,-0.4398371763911533
-0.45999999999999996,-0.97,-0.4076359498037151
-0.44999999999999996,-0.97,-0.373825970353553
-0.43999999999999995,-0.97,-0.33854067058324555
-0.42999999999999994,-0.97,-0.3019193054506667
-0.42000000000000004,-0.97,-0.26410640275328423
-0.41000000000000003,-0.97,-0.2252511927429727
-0.4,-0.97,-0.1855070191823858
-0.39,-0.97,-0.14503073416718165
-0.38,-0.97,-0.10398207910245942
-0.37,-0.97,-0.06252305427641297
-0.36,-0.97,-0.020817279519203976
-0.35,-0.97,0.02097065152975697
-0.33999999999999997,-0.97,0.0626758209977093
-0.32999999999999996,-0.97,0.10413363763404263
-0.31999999999999995,-0.97,0.14518048637676806
-0.30999999999999994,-0.97,0.18565437406641955
-0.29999999999999993,-0.97,0.22539556875904637
-0.29000000000000004,-0.97,0.26424723011522155
-0.28,-0.97,0.30205602837720813
-0.27,-0.97,0.33867274949146275
-0.26,-0.97,0.3739528839883362
-0.25,-0.97,0.40775719729492954
-0.24,-0.97,0.4399522792303434
-0.22999999999999998,-0.97,0.4704110705147127
-0.21999999999999997,-0.97,0.49901336421413567
-0.20999999999999996,-0.97,0.5256462801425261
-0.19999999999999996,-0.97,0.5502047103481366
-0.18999999999999995,-0.97,0.5725917339266247
-0.17999999999999994,-0.97,0.5927189995235848
-0.16999999999999993,-0.97,0.6105070740169781
-0.16000000000000003,-0.97,0.6258857560033781
-0.15000000000000002,-0.97,0.6387943528508357
-0.14,-0.97,0.6491819202249709
-0.13,-0.97,0.6570074631429859
-0.12,-0.97,0.6622400977621341
-0.10999999999999999,-0.97,0.6648591732641367
-0.09999999999999998,-0.97,0.6648543533545294
-0.08999999999999997,-0.97,0.6622256570552933
-0.07999999999999996,-0.97,0.6569834586297848
-0.06999999999999995,-0.97,0.649148446640256
-0.05999999999999994,-0.97,0.6387515422995533
-0.04999999999999993,-0.97,0.625833777439216
-0.040000000000000036,-0.97,0.6104461325755821
-0.030000000000000027,-0.97,0.5926493357129823
-0.020000000000000018,-0.97,0.5725136226780505
-0.010000000000000009,-0.97,0.5501184599310026
0.0,-0.97,0.5255522309478251
0.010000000000000009,-0.97,0.49891188741107173
0.020000000000000018,-0.97,0.47030256658586733
0.030000000000000027,-0.97,0.4398371763911534
0.040000000000000036,-0.97,0.4076359498037152
0.050000000000000044,-0.97,0.3738259703535528
0.06000000000000005,-0.97,0.33854067058324555
0.07000000000000006,-0.97,0.3019193054506665
0.08000000000000007,-0.97,0.26410640275328395
0.09000000000000008,-0.97,0.22525119274297245
0.10000000000000009,-0.97,0.18550701918238566
0.1100000000000001,-0.97,0.14503073416718149
0.1200000000000001,-0.97,0.10398207910245938
0.13000000000000012,-0.97,0.06252305427641297
0.14000000000000012,-0.97,0.020817279519204028
0.15000000000000013,-0.97,-0.020970651529756884
0.15999999999999992,-0.97,-0.06267582099770924
0.16999999999999993,-0.97,-0.10413363763404254
0.17999999999999994,-0.97,-0.145180486376768
0.18999999999999995,-0.97,-0.18565437406641946
0.19999999999999996,-0.97,-0.22539556875904626
0.20999999999999996,-0.97,-0.2642472301152216
0.21999999999999997,-0.97,-0.30205602837720824
0.22999999999999998,-0.97,-0.338672749491463
0.24,-0.97,-0.37395288398833637
0.25,-0.97,-0.4077571972949297
0.26,-0.97,-0.43995227923034363
0.27,-0.97,-0.4704110705147126
0.28,-0.97,-0.4990133642141358
0.29000000000000004,-0.97,-0.5256462801425262
0.30000000000000004,-0.97,-0.5502047103481363
0.31000000000000005,-0.97,-0.5725917339266247
0.32000000000000006,-0.97,-0.5927189995235849
0.33000000000000007,-0.97,-0.6105070740169782
0.3400000000000001,-0.97,-0.6258857560033783
0.3500000000000001,-0.97,-0.6387943528508356
0.3600000000000001,-0.97,-0.6491819202249707
0.3700000000000001,-0.97,-0.6570074631429859
0.3800000000000001,-0.97,-0.6622400977621338
0.3900000000000001,-0.97,-0.6648591732641367
0.40000000000000013,-0.97,-0.6648543533545295
0.4099999999999999,-0.97,-0.6622256570552933
0.41999999999999993,-0.97,-0.6569834586297846
0.42999999999999994,-0.97,-0.649148446640256
0.43999999999999995,-0.97,-0.6387515422995536
0.44999999999999996,-0.97,-0.625833777439216
0.45999999999999996,-0.97,-0.6104461325755819
0.47,-0.97,-0.5926493357129823
0.48,-0.97,-0.5725136226780505
0.49,-0.97,-0.5501184599310023
0.5,-0.97,-0.5255522309478249
0.51,-0.97,-0.4989118874110718
0.52,-0.97,-0.4703025665858672
0.53,-0.97,-0.4398371763911532
0.54,-0.97,-0.40763594980371515
0.55,-0.97,-0.37382597035355286
0.56,-0.97,-0.33854067058324555
0.5700000000000001,-0.97,-0.30191930545066686
0.5800000000000001,-0.97,-0.2641064027532843
0.5900000000000001,-0.97,-0.22525119274297273
0.6000000000000001,-0.97,-0.18550701918238593
0.6100000000000001,-0.97,-0.1450307341671818
0.6200000000000001,-0.97,-0.1039820791024596
0.6300000000000001,-0.97,-0.06252305427641314
0.6400000000000001,-0.97,-0.020817279519204132
0.6500000000000001,-0.97,0.020970651529756808
0.6600000000000001,-0.97,0.06267582099770917