TITLE = "Solution" 
VARIABLES = "x", "y", "sol" 
ZONE STRANDID=1, SOLUTIONTIME= 0.2000000000000001, I= 201, J =201, DATAPACKING=POINT 
-1.0,-1.0,0.86652437448693
-0.99,-1.0,0.8463608158909885
-0.98,-1.0,0.8228570578202019
-0.97,-1.0,0.7961058588698302
-0.96,-1.0,0.7662127938006698
-0.95,-1.0,0.7332958368837065
-0.94,-1.0,0.6974848963095643
-0.9299999999999999,-1.0,0.6589213015002265
-0.92,-1.0,0.6177572453463757
-0.91,-1.0,0.5741551835715821
-0.9,-1.0,0.5282871935937844
-0.89,-1.0,0.4803342954143326
-0.88,-1.0,0.43048573721474637
-0.87,-1.0,0.37893824848059915
-0.86,-1.0,0.3258952636001174
-0.85,-1.0,0.27156611900158945
-0.84,-1.0,0.21616522699812057
-0.83,-1.0,0.15991122960018833
-0.8200000000000001,-1.0,0.1030261356355158
-0.81,-1.0,0.04573444458165404
-0.8,-1.0,-0.011737739430891271
-0.79,-1.0,-0.06916359994836592
-0.78,-1.0,-0.12631650333468752
-0.77,-1.0,-0.1829708931908682
-0.76,-1.0,-0.23890318052307422
-0.75,-1.0,-0.29389262614623685
-0.74,-1.0,-0.34772221184076946
-0.73,-1.0,-0.4001794968243343
-0.72,-1.0,-0.4510574561585549
-0.71,-1.0,-0.500155297781868
-0.7,-1.0,-0.5472792549440562
-0.69,-1.0,-0.5922433509150891
-0.6799999999999999,-1.0,-0.6348701329503099
-0.6699999999999999,-1.0,-0.6749913726153505
-0.6599999999999999,-1.0,-0.7124487297069029
-0.6499999999999999,-1.0,-0.747094377149166
-0.64,-1.0,-0.778791584399776
-0.63,-1.0,-0.8074152570627913
-0.62,-1.0,-0.832852430579123
-0.61,-1.0,-0.8550027160460411
-0.6,-1.0,-0.8737786964063108
-0.59,-1.0,-0.8891062714433791
-0.5800000000000001,-1.0,-0.9009249502210785
-0.5700000000000001,-1.0,-0.9091880898137136
-0.56,-1.0,-0.9138630793843818
-0.55,-1.0,-0.914931468885047
-0.54,-1.0,-0.9123890418704508
-0.53,-1.0,-0.9062458321384959
-0.52,-1.0,-0.8965260841314282
-0.51,-1.0,-0.8832681572541015
-0.5,-1.0,-0.8665243744869298
-0.49,-1.0,-0.8463608158909885
-0.48,-1.0,-0.8228570578202019
-0.47,-1.0,-0.7961058588698302
-0.45999999999999996,-1.0,-0.7662127938006698
-0.44999999999999996,-1.0,-0.7332958368837061
-0.43999999999999995,-1.0,-0.6974848963095641
-0.42999999999999994,-1.0,-0.6589213015002262
-0.42000000000000004,-1.0,-0.6177572453463757
-0.41000000000000003,-1.0,-0.5741551835715821
-0.4,-1.0,-0.5282871935937843
-0.39,-1.0,-0.4803342954143325
-0.38,-1.0,-0.4304857372147463
-0.37,-1.0,-0.3789382484805991
-0.36,-1.0,-0.32589526360011734
-0.35,-1.0,-0.2715661190015893
-0.33999999999999997,-1.0,-0.2161652269981203
-0.32999999999999996,-1.0,-0.1599112296001882
-0.31999999999999995,-1.0,-0.10302613563551569
-0.30999999999999994,-1.0,-0.04573444458165394
-0.29999999999999993,-1.0,0.011737739430891393
-0.29000000000000004,-1.0,0.06916359994836602
-0.28,-1.0,0.12631650333468764
-0.27,-1.0,0.18297089319086818
-0.26,-1.0,0.23890318052307424
-0.25,-1.0,0.2938926261462369
-0.24,-1.0,0.34772221184076957
-0.22999999999999998,-1.0,0.4001794968243341
-0.21999999999999997,-1.0,0.451057456158555
-0.20999999999999996,-1.0,0.500155297781868
-0.19999999999999996,-1.0,0.5472792549440564
-0.18999999999999995,-1.0,0.592243350915089
-0.17999999999999994,-1.0,0.6348701329503099
-0.16999999999999993,-1.0,0.6749913726153501
-0.16000000000000003,-1.0,0.7124487297069028
-0.15000000000000002,-1.0,0.7470943771491658
-0.14,-1.0,0.7787915843997759
-0.13,-1.0,0.8074152570627914
-0.12,-1.0,0.8328524305791227
-0.10999999999999999,-1.0,0.8550027160460412
-0.09999999999999998,-1.0,0.8737786964063108
-0.08999999999999997,-1.0,0.8891062714433794
-0.07999999999999996,-1.0,0.9009249502210785
-0.06999999999999995,-1.0,0.9091880898137135
-0.05999999999999994,-1.0,0.9138630793843812
-0.04999999999999993,-1.0,0.9149314688850467
-0.040000000000000036,-1.0,0.9123890418704508
-0.030000000000000027,-1.0,0.906245832138496
-0.020000000000000018,-1.0,0.8965260841314282
-0.010000000000000009,-1.0,0.8832681572541015
0.0,-1.0,0.8665243744869298
0.010000000000000009,-1.0,0.8463608158909887
0.020000000000000018,-1.0,0.822857057820202
0.030000000000000027,-1.0,0.79610585886983
0.040000000000000036,-1.0,0.7662127938006699
0.050000000000000044,-1.0,0.7332958368837064
0.06000000000000005,-1.0,0.6974848963095641
0.07000000000000006,-1.0,0.6589213015002269
0.08000000000000007,-1.0,0.6177572453463758
0.09000000000000008,-1.0,0.5741551835715821
0.10000000000000009,-1.0,0.5282871935937843
0.1100000000000001,-1.0,0.4803342954143325
0.1200000000000001,-1.0,0.4304857372147461
0.13000000000000012,-1.0,0.37893824848059876
0.14000000000000012,-1.0,0.32589526360011706
0.15000000000000013,-1.0,0.27156611900158917
0.15999999999999992,-1.0,0.21616522699812024
0.16999999999999993,-1.0,0.1599112296001881
0.17999999999999994,-1.0,0.10302613563551567
0.18999999999999995,-1.0,0.04573444458165396
0.19999999999999996,-1.0,-0.011737739430891316
0.20999999999999996,-1.0,-0.06916359994836588
0.21999999999999997,-1.0,-0.12631650333468744
0.22999999999999998,-1.0,-0.18297089319086812
0.24,-1.0,-0.2389031805230741
0.25,-1.0,-0.2938926261462368
0.26,-1.0,-0.34772221184076957
0.27,-1.0,-0.4001794968243343
0.28,-1.0,-0.451057456158555
0.29000000000000004,-1.0,-0.500155297781868
0.30000000000000004,-1.0,-0.5472792549440564
0.31000000000000005,-1.0,-0.5922433509150893
0.32000000000000006,-1.0,-0.6348701329503101
0.33000000000000007,-1.0,-0.6749913726153502
0.3400000000000001,-1.0,-0.7124487297069031
0.3500000000000001,-1.0,-0.7470943771491663
0.3600000000000001,-1.0,-0.7787915843997761
0.3700000000000001,-1.0,-0.8074152570627915
0.3800000000000001,-1.0,-0.8328524305791227
0.3900000000000001,-1.0,-0.8550027160460407
0.40000000000000013,-1.0,-0.8737786964063105
0.4099999999999999,-1.0,-0.8891062714433793
0.41999999999999993,-1.0,-0.9009249502210784
0.42999999999999994,-1.0,-0.9091880898137135
0.43999999999999995,-1.0,-0.9138630793843814
0.44999999999999996,-1.0,-0.9149314688850466
0.45999999999999996,-1.0,-0.9123890418704509
0.47,-1.0,-0.906245832138496
0.48,-1.0,-0.8965260841314282
0.49,-1.0,-0.8832681572541013
0.5,-1.0,-0.86652437448693
0.51,-1.0,-0.8463608158909887
0.52,-1.0,-0.8228570578202021
0.53,-1.0,-0.7961058588698304
0.54,-1.0,-0.7662127938006696
0.55,-1.0,-0.7332958368837064
0.56,-1.0,-0.6974848963095642
0.5700000000000001,-1.0,-0.6589213015002267
0.5800000000000001,-1.0,-0.6177572453463758
0.5900000000000001,-1.0,-0.5741551835715821
0.6000000000000001,-1.0,-0.5282871935937843
0.6100000000000001,-1.0,-0.4803342954143325
0.6200000000000001,-1.0,-0.4304857372147465
0.6300000000000001,-1.0,-0.3789382484805992
0.6400000000000001,-1.0,-0.3258952636001174
0.6500000000000001,-1.0,-0.27156611900158956
0.6600000000000001,-1.0,-0.21616522699812052
0.6699999999999999,-1.0,-0.15991122960018844
0.6799999999999999,-1.0,-0.1030261356355159
0.69,-1.0,-0.045734444581654175
0.7,-1.0,0.011737739430891153
0.71,-1.0,0.0691635999483658
0.72,-1.0,0.1263165033346874
0.73,-1.0,0.18297089319086807
0.74,-1.0,0.2389031805230741
0.75,-1.0,0.29389262614623674
0.76,-1.0,0.34772221184076935
0.77,-1.0,0.4001794968243342
0.78,-1.0,0.45105745615855475
0.79,-1.0,0.5001552977818681
0.8,-1.0,0.5472792549440562
0.81,-1.0,0.592243350915089
0.8200000000000001,-1.0,0.6348701329503101
0.8300000000000001,-1.0,0.6749913726153505
0.8400000000000001,-1.0,0.7124487297069029
0.8500000000000001,-1.0,0.747094377149166
0.8600000000000001,-1.0,0.778791584399776
0.8700000000000001,-1.0,0.8074152570627913
0.8800000000000001,-1.0,0.832852430579123
0.8900000000000001,-1.0,0.8550027160460408
0.9000000000000001,-1.0,0.8737786964063105
0.9100000000000001,-1.0,0.8891062714433792
0.9199999999999999,-1.0,0.9009249502210784
0.9299999999999999,-1.0,0.9091880898137135
0.94,-1.0,0.9138630793843815
0.95,-1.0,0.9149314688850467
0.96,-1.0,0.9123890418704508
0.97,-1.0,0.9062458321384959
0.98,-1.0,0.8965260841314284
0.99,-1.0,0.8832681572541016
1.0,-1.0,0.86652437448693

-1.0,-0.99,0.8463608158909885
-0.99,-0.99,0.8265001910101618
-0.98,-0.99,0.8033777474674382
-0.97,-0.99,0.7770847389838411
-0.96,-0.99,0.7477249320517225
-0.95,-0.99,0.7154141964158234
-0.94,-0.99,0.6802800477883275
-0.9299999999999999,-0.99,0.6424611446026021
-0.92,-0.99,0.6021067407917078
-0.91,-0.99,0.5593760967513131
-0.9,-0.99,0.5144378508116707
-0.89,-0.99,0.46746935369917303
-0.88,-0.99,0.41865596861405735
-0.87,-0.99,0.36819033968654075
-0.86,-0.99,0.31627163169844713
-0.85,-0.99,0.2631047440708041
-0.84,-0.99,0.2088995022194372
-0.83,-0.99,0.15386982946991482
-0.8200000000000001,-0.99,0.09823290279991301
-0.81,-0.99,0.042208295740904324
-0.8,-0.99,-0.013982888178257637
-0.79,-0.99,-0.07011888802595395
-0.78,-0.99,-0.12597816065688466
-0.77,-0.99,-0.18134025504164958
-0.76,-0.99,-0.2359866822862471
-0.75,-0.99,-0.28970177790792073
-0.74,-0.99,-0.3422735529643446
-0.73,-0.99,-0.39349453067713025
-0.72,-0.99,-0.4431625652478844
-0.71,-0.99,-0.4910816396353226
-0.7,-0.99,-0.5370626391449809
-0.69,-0.99,-0.5809240977785143
-0.6799999999999999,-0.99,-0.6224929143970914
-0.6699999999999999,-0.99,-0.6616050358725037
-0.6599999999999999,-0.99,-0.6981061045299173
-0.6499999999999999,-0.99,-0.7318520673270925
-0.64,-0.99,-0.7627097443659336
-0.63,-0.99,-0.7905573544926996
-0.62,-0.99,-0.8152849959125829
-0.61,-0.99,-0.8367950799218841
-0.6,-0.99,-0.8550027160460408
-0.59,-0.99,-0.8698360470635494
-0.5800000000000001,-0.99,-0.8812365325935878
-0.5700000000000001,-0.99,-0.8891591801281554
-0.56,-0.99,-0.8935727225969459
-0.55,-0.99,-0.8944597417641916
-0.54,-0.99,-0.8918167369704797
-0.53,-0.99,-0.8856541389482568
-0.52,-0.99,-0.8759962686564934
-0.51,-0.99,-0.86288124129697
-0.5,-0.99,-0.8463608158909885
-0.49,-0.99,-0.8265001910101618
-0.48,-0.99,-0.8033777474674383
-0.47,-0.99,-0.7770847389838411
-0.45999999999999996,-0.99,-0.7477249320517221
-0.44999999999999996,-0.99,-0.7154141964158232
-0.43999999999999995,-0.99,-0.6802800477883272
-0.42999999999999994,-0.99,-0.6424611446026021
-0.42000000000000004,-0.99,-0.6021067407917078
-0.41000000000000003,-0.99,-0.5593760967513133
-0.4,-0.99,-0.5144378508116706
-0.39,-0.99,-0.4674693536991729
-0.38,-0.99,-0.41865596861405735
-0.37,-0.99,-0.3681903396865407
-0.36,-0.99,-0.31627163169844696
-0.35,-0.99,-0.2631047440708038
-0.33999999999999997,-0.99,-0.20889950221943707
-0.32999999999999996,-0.99,-0.1538698294699147
-0.31999999999999995,-0.99,-0.09823290279991291
-0.30999999999999994,-0.99,-0.04220829574090421
-0.29999999999999993,-0.99,0.013982888178257737
-0.29000000000000004,-0.99,0.07011888802595406
-0.28,-0.99,0.12597816065688466
-0.27,-0.99,0.18134025504164958
-0.26,-0.99,0.23598668228624717
-0.25,-0.99,0.28970177790792084
-0.24,-0.99,0.34227355296434453
-0.22999999999999998,-0.99,0.39349453067713047
-0.21999999999999997,-0.99,0.44316256524788444
-0.20999999999999996,-0.99,0.4910816396353229
-0.19999999999999996,-0.99,0.5370626391449808
-0.18999999999999995,-0.99,0.5809240977785144
-0.17999999999999994,-0.99,0.6224929143970912
-0.16999999999999993,-0.99,0.6616050358725039
-0.16000000000000003,-0.99,0.6981061045299168
-0.15000000000000002,-0.99,0.7318520673270925
-0.14,-0.99,0.7627097443659336
-0.13,-0.99,0.7905573544926993
-0.12,-0.99,0.8152849959125827
-0.10999999999999999,-0.99,0.8367950799218841
-0.09999999999999998,-0.99,0.8550027160460412
-0.08999999999999997,-0.99,0.8698360470635494
-0.07999999999999996,-0.99,0.8812365325935878
-0.06999999999999995,-0.99,0.8891591801281549
-0.05999999999999994,-0.99,0.8935727225969459
-0.04999999999999993,-0.99,0.8944597417641917
-0.040000000000000036,-0.99,0.8918167369704799
-0.030000000000000027,-0.99,0.8856541389482568
-0.020000000000000018,-0.99,0.8759962686564936
-0.010000000000000009,-0.99,0.8628812412969702
0.0,-0.99,0.8463608158909885
0.010000000000000009,-0.99,0.8265001910101617
0.020000000000000018,-0.99,0.8033777474674382
0.030000000000000027,-0.99,0.7770847389838411
0.040000000000000036,-0.99,0.7477249320517223
0.050000000000000044,-0.99,0.7154141964158233
0.06000000000000005,-0.99,0.6802800477883275
0.07000000000000006,-0.99,0.6424611446026022
0.08000000000000007,-0.99,0.6021067407917076
0.09000000000000008,-0.99,0.5593760967513132
0.10000000000000009,-0.99,0.5144378508116708
0.1100000000000001,-0.99,0.46746935369917286
0.1200000000000001,-0.99,0.4186559686140571
0.13000000000000012,-0.99,0.3681903396865404
0.14000000000000012,-0.99,0.3162716316984468
0.15000000000000013,-0.99,0.26310474407080364
0.15999999999999992,-0.99,0.20889950221943698
0.16999999999999993,-0.99,0.15386982946991462
0.17999999999999994,-0.99,0.09823290279991291
0.18999999999999995,-0.99,0.04220829574090425
0.19999999999999996,-0.99,-0.013982888178257633
0.20999999999999996,-0.99,-0.07011888802595391
0.21999999999999997,-0.99,-0.12597816065688455
0.22999999999999998,-0.99,-0.18134025504164947
0.24,-0.99,-0.23598668228624706
0.25,-0.99,-0.28970177790792084
0.26,-0.99,-0.34227355296434464
0.27,-0.99,-0.39349453067713036
0.28,-0.99,-0.44316256524788455
0.29000000000000004,-0.99,-0.49108163963532286
0.30000000000000004,-0.99,-0.5370626391449811
0.31000000000000005,-0.99,-0.5809240977785146
0.32000000000000006,-0.99,-0.6224929143970914
0.33000000000000007,-0.99,-0.6616050358725041
0.3400000000000001,-0.99,-0.6981061045299175
0.3500000000000001,-0.99,-0.7318520673270927
0.3600000000000001,-0.99,-0.7627097443659339
0.3700000000000001,-0.99,-0.7905573544926994
0.3800000000000001,-0.99,-0.8152849959125826
0.3900000000000001,-0.99,-0.8367950799218837
0.40000000000000013,-0.99,-0.855002716046041
0.4099999999999999,-0.99,-0.8698360470635494
0.41999999999999993,-0.99,-0.8812365325935877
0.42999999999999994,-0.99,-0.889159180128155
0.43999999999999995,-0.99,-0.8935727225969459
0.44999999999999996,-0.99,-0.8944597417641917
0.45999999999999996,-0.99,-0.8918167369704799
0.47,-0.99,-0.8856541389482568
0.48,-0.99,-0.8759962686564933
0.49,-0.99,-0.8628812412969702
0.5,-0.99,-0.8463608158909887
0.51,-0.99,-0.8265001910101619
0.52,-0.99,-0.8033777474674383
0.53,-0.99,-0.7770847389838409
0.54,-0.99,-0.7477249320517224
0.55,-0.99,-0.7154141964158234
0.56,-0.99,-0.6802800477883275
0.5700000000000001,-0.99,-0.6424611446026021
0.5800000000000001,-0.99,-0.6021067407917078
0.5900000000000001,-0.99,-0.5593760967513131
0.6000000000000001,-0.99,-0.5144378508116707
0.6100000000000001,-0.99,-0.46746935369917303
0.6200000000000001,-0.99,-0.41865596861405735
0.6300000000000001,-0.99,-0.36819033968654075
0.6400000000000001,-0.99,-0.31627163169844713
0.6500000000000001,-0.99,-0.263104744070804
0.6600000000000001,-0.99,-0.20889950221943732
0.6699999999999999,-0.99,-0.15386982946991493
0.6799999999999999,-0.99,-0.09823290279991315
0.69,-0.99,-0.04220829574090444
0.7,-0.99,0.013982888178257519
0.71,-0.99,0.07011888802595384
0.72,-0.99,0.1259781606568845
0.73,-0.99,0.18134025504164947
0.74,-0.99,0.23598668228624697
0.75,-0.99,0.2897017779079206
0.76,-0.99,0.3422735529643445
0.77,-0.99,0.3934945306771302
0.78,-0.99,0.44316256524788455
0.79,-0.99,0.49108163963532275
0.8,-0.99,0.5370626391449809
0.81,-0.99,0.5809240977785146
0.8200000000000001,-0.99,0.6224929143970915
0.8300000000000001,-0.99,0.6616050358725039
0.8400000000000001,-0.99,0.6981061045299171
0.8500000000000001,-0.99,0.7318520673270927
0.8600000000000001,-0.99,0.7627097443659335
0.8700000000000001,-0.99,0.7905573544926994
0.8800000000000001,-0.99,0.8152849959125825
0.8900000000000001,-0.99,0.8367950799218836
0.9000000000000001,-0.99,0.8550027160460408
0.9100000000000001,-0.99,0.8698360470635494
0.9199999999999999,-0.99,0.8812365325935877
0.9299999999999999,-0.99,0.8891591801281549
0.94,-0.99,0.893572722596946
0.95,-0.99,0.8944597417641917
0.96,-0.99,0.8918167369704799
0.97,-0.99,0.885654138948257
0.98,-0.99,0.8759962686564935
0.99,-0.99,0.8628812412969701
1.0,-0.99,0.8463608158909885

-1.0,-0.98,0.8228570578202019
-0.99,-0.98,0.8033777474674383
-0.98,-0.98,0.7807278721738009
-0.97,-0.98,0.7549968206493307
-0.96,-0.98,0.7262861415989946
-0.95,-0.98,0.6947091429563436
-0.94,-0.98,0.6603904447088611
-0.9299999999999999,-0.98,0.6234654870798086
-0.92,-0.98,0.5840799960075393
-0.91,-0.98,0.5423894080317961
-0.9,-0.98,0.49855825685670185
-0.89,-0.98,0.4527595240113956
-0.88,-0.98,0.4051739561709674
-0.87,-0.98,0.35598935183190533
-0.86,-0.98,0.3053998201572274
-0.85,-0.98,0.25360501491629484
-0.84,-0.98,0.20080934654259833
-0.83,-0.98,0.14722117541916194
-0.8200000000000001,-0.98,0.09305198957530336
-0.81,-0.98,0.03851557004000135
-0.8,-0.98,-0.016172852854158353
-0.79,-0.98,-0.07079744888677636
-0.78,-0.98,-0.125142639732916
-0.77,-0.98,-0.17899394975226357
-0.76,-0.98,-0.23213885242649612
-0.75,-0.98,-0.2843676091043549
-0.74,-0.98,-0.3354740967442816
-0.73,-0.98,-0.38525662138789474
-0.72,-0.98,-0.43351871415389803
-0.71,-0.98,-0.48006990661099735
-0.7,-0.98,-0.5247264824697806
-0.69,-0.98,-0.5673122026269829
-0.6799999999999999,-0.98,-0.6076590007007081
-0.6699999999999999,-0.98,-0.6456076463116582
-0.6599999999999999,-0.98,-0.6810083734926936
-0.6499999999999999,-0.98,-0.7137214717466847
-0.64,-0.98,-0.7436178374200162
-0.63,-0.98,-0.7705794832157251
-0.62,-0.98,-0.7945000038354605
-0.61,-0.98,-0.8152849959125826
-0.6,-0.98,-0.8328524305791227
-0.59,-0.98,-0.8471329771962496
-0.5800000000000001,-0.98,-0.8580702769706264
-0.5700000000000001,-0.98,-0.8656211653768202
-0.56,-0.98,-0.869755842507965
-0.55,-0.98,-0.870457990682379
-0.54,-0.98,-0.8677248388419978
-0.53,-0.98,-0.8615671734884773
-0.52,-0.98,-0.8520092961137986
-0.51,-0.98,-0.8390889272933805
-0.5,-0.98,-0.8228570578202021
-0.49,-0.98,-0.8033777474674382
-0.48,-0.98,-0.7807278721738009
-0.47,-0.98,-0.7549968206493302
-0.45999999999999996,-0.98,-0.7262861415989945
-0.44999999999999996,-0.98,-0.6947091429563432
-0.43999999999999995,-0.98,-0.6603904447088611
-0.42999999999999994,-0.98,-0.6234654870798086
-0.42000000000000004,-0.98,-0.5840799960075396
-0.41000000000000003,-0.98,-0.5423894080317964
-0.4,-0.98,-0.49855825685670185
-0.39,-0.98,-0.4527595240113956
-0.38,-0.98,-0.40517395617096735
-0.37,-0.98,-0.35598935183190517
-0.36,-0.98,-0.3053998201572272
-0.35,-0.98,-0.25360501491629484
-0.33999999999999997,-0.98,-0.20080934654259822
-0.32999999999999996,-0.98,-0.14722117541916183
-0.31999999999999995,-0.98,-0.09305198957530326
-0.30999999999999994,-0.98,-0.038515570040001244
-0.29999999999999993,-0.98,0.016172852854158454
-0.29000000000000004,-0.98,0.07079744888677642
-0.28,-0.98,0.125142639732916
-0.27,-0.98,0.17899394975226368
-0.26,-0.98,0.23213885242649623
-0.25,-0.98,0.2843676091043549
-0.24,-0.98,0.33547409674428175
-0.22999999999999998,-0.98,0.3852566213878948
-0.21999999999999997,-0.98,0.4335187141538983
-0.20999999999999996,-0.98,0.4800699066109974
-0.19999999999999996,-0.98,0.5247264824697808
-0.18999999999999995,-0.98,0.567312202626983
-0.17999999999999994,-0.98,0.6076590007007081
-0.16999999999999993,-0.98,0.645607646311658
-0.16000000000000003,-0.98,0.6810083734926937
-0.15000000000000002,-0.98,0.7137214717466848
-0.14,-0.98,0.743617837420016
-0.13,-0.98,0.770579483215725
-0.12,-0.98,0.7945000038354607
-0.10999999999999999,-0.98,0.8152849959125827
-0.09999999999999998,-0.98,0.8328524305791227
-0.08999999999999997,-0.98,0.8471329771962496
-0.07999999999999996,-0.98,0.858070276970626
-0.06999999999999995,-0.98,0.8656211653768202
-0.05999999999999994,-0.98,0.8697558425079652
-0.04999999999999993,-0.98,0.8704579906823791
-0.040000000000000036,-0.98,0.8677248388419977
-0.030000000000000027,-0.98,0.8615671734884774
-0.020000000000000018,-0.98,0.8520092961137988
-0.010000000000000009,-0.98,0.8390889272933807
0.0,-0.98,0.8228570578202021
0.010000000000000009,-0.98,0.8033777474674381
0.020000000000000018,-0.98,0.7807278721738009
0.030000000000000027,-0.98,0.7549968206493303
0.040000000000000036,-0.98,0.7262861415989946
0.050000000000000044,-0.98,0.6947091429563437
0.06000000000000005,-0.98,0.6603904447088613
0.07000000000000006,-0.98,0.6234654870798086
0.08000000000000007,-0.98,0.5840799960075396
0.09000000000000008,-0.98,0.5423894080317966
0.10000000000000009,-0.98,0.49855825685670185
0.1100000000000001,-0.98,0.4527595240113953
0.1200000000000001,-0.98,0.405173956170967
0.13000000000000012,-0.98,0.355989351831905
0.14000000000000012,-0.98,0.3053998201572271
0.15000000000000013,-0.98,0.25360501491629467
0.15999999999999992,-0.98,0.20080934654259808
0.16999999999999993,-0.98,0.14722117541916177
0.17999999999999994,-0.98,0.09305198957530322
0.18999999999999995,-0.98,0.03851557004000131
0.19999999999999996,-0.98,-0.016172852854158353
0.20999999999999996,-0.98,-0.07079744888677632
0.21999999999999997,-0.98,-0.12514263973291592
0.22999999999999998,-0.98,-0.17899394975226354
0.24,-0.98,-0.23213885242649618
0.25,-0.98,-0.2843676091043549
0.26,-0.98,-0.33547409674428164
0.27,-0.98,-0.38525662138789485
0.28,-0.98,-0.4335187141538982
0.29000000000000004,-0.98,-0.4800699066109976
0.30000000000000004,-0.98,-0.524726482469781
0.31000000000000005,-0.98,-0.567312202626983
0.32000000000000006,-0.98,-0.6076590007007084
0.33000000000000007,-0.98,-0.6456076463116586
0.3400000000000001,-0.98,-0.6810083734926937
0.3500000000000001,-0.98,-0.7137214717466851
0.3600000000000001,-0.98,-0.743617837420016
0.3700000000000001,-0.98,-0.7705794832157249
0.3800000000000001,-0.98,-0.7945000038354604
0.3900000000000001,-0.98,-0.8152849959125827
0.40000000000000013,-0.98,-0.8328524305791227
0.4099999999999999,-0.98,-0.8471329771962495
0.41999999999999993,-0.98,-0.858070276970626
0.42999999999999994,-0.98,-0.8656211653768201
0.43999999999999995,-0.98,-0.8697558425079652
0.44999999999999996,-0.98,-0.8704579906823791
0.45999999999999996,-0.98,-0.8677248388419977
0.47,-0.98,-0.8615671734884771
0.48,-0.98,-0.8520092961137988
0.49,-0.98,-0.8390889272933807
0.5,-0.98,-0.8228570578202021
0.51,-0.98,-0.8033777474674382
0.52,-0.98,-0.7807278721738007
0.53,-0.98,-0.7549968206493304
0.54,-0.98,-0.7262861415989947
0.55,-0.98,-0.6947091429563435
0.56,-0.98,-0.6603904447088611
0.5700000000000001,-0.98,-0.6234654870798086
0.5800000000000001,-0.98,-0.5840799960075393
0.5900000000000001,-0.98,-0.5423894080317961
0.6000000000000001,-0.98,-0.49855825685670185
0.6100000000000001,-0.98,-0.4527595240113955
0.6200000000000001,-0.98,-0.4051739561709674
0.6300000000000001,-0.98,-0.3559893518319053
0.6400000000000001,-0.98,-0.30539982015722744
0.6500000000000001,-0.98,-0.25360501491629495
0.6600000000000001,-0.98,-0.2008093465425984
0.6699999999999999,-0.98,-0.14722117541916202
0.6799999999999999,-0.98,-0.09305198957530347
0.69,-0.98,-0.03851557004000145
0.7,-0.98,0.016172852854158253
0.71,-0.98,0.07079744888677621
0.72,-0.98,0.1251426397329159
0.73,-0.98,0.17899394975226343
0.74,-0.98,0.232138852426496
0.75,-0.98,0.28436760910435477
0.76,-0.98,0.3354740967442815
0.77,-0.98,0.38525662138789474
0.78,-0.98,0.4335187141538982
0.79,-0.98,0.48006990661099735
0.8,-0.98,0.524726482469781
0.81,-0.98,0.5673122026269832
0.8200000000000001,-0.98,0.6076590007007082
0.8300000000000001,-0.98,0.6456076463116582
0.8400000000000001,-0.98,0.6810083734926937
0.8500000000000001,-0.98,0.7137214717466847
0.8600000000000001,-0.98,0.743617837420016
0.8700000000000001,-0.98,0.7705794832157249
0.8800000000000001,-0.98,0.7945000038354602
0.8900000000000001,-0.98,0.8152849959125825
0.9000000000000001,-0.98,0.8328524305791227
0.9100000000000001,-0.98,0.8471329771962492
0.9199999999999999,-0.98,0.8580702769706261
0.9299999999999999,-0.98,0.8656211653768203
0.94,-0.98,0.8697558425079652
0.95,-0.98,0.8704579906823788
0.96,-0.98,0.8677248388419977
0.97,-0.98,0.8615671734884774
0.98,-0.98,0.8520092961137986
0.99,-0.98,0.8390889272933805
1.0,-0.98,0.8228570578202019

-1.0,-0.97,0.7961058588698304
-0.99,-0.97,0.7770847389838411
-0.98,-0.97,0.7549968206493306
-0.97,-0.97,0.7299292747889543
-0.96,-0.97,0.7019810315539515
-0.95,-0.97,0.6712623898920325
-0.94,-0.97,0.6378945822478248
-0.9299999999999999,-0.97,0.6020092961137985
-0.92,-0.97,0.563748154319897
-0.91,-0.97,0.523262156112928
-0.9,-0.97,0.48071108123152123
-0.89,-0.97,0.4362628593284962
-0.88,-0.97,0.3900929072292435
-0.87,-0.97,0.34238343664165405
-0.86,-0.97,0.2933227350497531
-0.85,-0.97,0.24310442262902177
-0.84,-0.97,0.19192668811601968
-0.83,-0.97,0.13999150664798693
-0.8200000000000001,-0.97,0.08750384265925028
-0.81,-0.97,0.03467084098024069
-0.8,-0.97,-0.018298990668517374
-0.79,-0.97,-0.07119660456112042
-0.78,-0.97,-0.12381323798215531
-0.77,-0.97,-0.17594123711776255
-0.76,-0.97,-0.2273748765703714
-0.75,-0.97,-0.27791117126285697
-0.74,-0.97,-0.3273506775279051
-0.73,-0.97,-0.37549828022104936
-0.72,-0.97,-0.42216396275100776
-0.71,-0.97,-0.4671635569883561
-0.7,-0.97,-0.5103194700929994
-0.69,-0.97,-0.5514613853919746
-0.6799999999999999,-0.97,-0.5904269345415498
-0.6699999999999999,-0.97,-0.627062338320898
-0.6599999999999999,-0.97,-0.6612230135284258
-0.6499999999999999,-0.97,-0.692774143585617
-0.64,-0.97,-0.7215912105964762
-0.63,-0.97,-0.7475604867627772
-0.62,-0.97,-0.770579483215725
-0.61,-0.97,-0.7905573544926994
-0.6,-0.97,-0.8074152570627913
-0.59,-0.97,-0.8210866604861997
-0.5800000000000001,-0.97,-0.8315176099794819
-0.5700000000000001,-0.97,-0.838666939350436
-0.56,-0.97,-0.8425064334622532
-0.55,-0.97,-0.8430209395857713
-0.54,-0.97,-0.8402084272003765
-0.53,-0.97,-0.8340799960075396
-0.52,-0.97,-0.8246598321253644
-0.51,-0.97,-0.8119851126370308
-0.5,-0.97,-0.7961058588698301
-0.49,-0.97,-0.7770847389838411
-0.48,-0.97,-0.7549968206493302
-0.47,-0.97,-0.7299292747889543
-0.45999999999999996,-0.97,-0.7019810315539513
-0.44999999999999996,-0.97,-0.6712623898920327
-0.43999999999999995,-0.97,-0.6378945822478248
-0.42999999999999994,-0.97,-0.6020092961137986
-0.42000000000000004,-0.97,-0.563748154319897
-0.41000000000000003,-0.97,-0.5232621561129283
-0.4,-0.97,-0.4807110812315212
-0.39,-0.97,-0.43626285932849623
-0.38,-0.97,-0.3900929072292433
-0.37,-0.97,-0.3423834366416539
-0.36,-0.97,-0.29332273504975304
-0.35,-0.97,-0.2431044226290216
-0.33999999999999997,-0.97,-0.19192668811601954
-0.32999999999999996,-0.97,-0.1399915066479868
-0.31999999999999995,-0.97,-0.08750384265925017
-0.30999999999999994,-0.97,-0.034670840980240605
-0.29999999999999993,-0.97,0.01829899066851745
-0.29000000000000004,-0.97,0.07119660456112044
-0.28,-0.97,0.12381323798215539
-0.27,-0.97,0.17594123711776266
-0.26,-0.97,0.22737487657037136
-0.25,-0.97,0.27791117126285714
-0.24,-0.97,0.32735067752790514
-0.22999999999999998,-0.97,0.3754982802210495
-0.21999999999999997,-0.97,0.42216396275100776
-0.20999999999999996,-0.97,0.4671635569883562
-0.19999999999999996,-0.97,0.5103194700929995
-0.18999999999999995,-0.97,0.5514613853919745
-0.17999999999999994,-0.97,0.5904269345415498
-0.16999999999999993,-0.97,0.6270623383208982
-0.16000000000000003,-0.97,0.6612230135284258
-0.15000000000000002,-0.97,0.692774143585617
-0.14,-0.97,0.7215912105964761
-0.13,-0.97,0.7475604867627772
-0.12,-0.97,0.7705794832157249
-0.10999999999999999,-0.97,0.7905573544926994
-0.09999999999999998,-0.97,0.8074152570627913
-0.08999999999999997,-0.97,0.8210866604861993
-0.07999999999999996,-0.97,0.831517609979482
-0.06999999999999995,-0.97,0.8386669393504362
-0.05999999999999994,-0.97,0.8425064334622534
-0.04999999999999993,-0.97,0.8430209395857712
-0.040000000000000036,-0.97,0.8402084272003765
-0.030000000000000027,-0.97,0.8340799960075397
-0.020000000000000018,-0.97,0.8246598321253644
-0.010000000000000009,-0.97,0.8119851126370307
0.0,-0.97,0.7961058588698302
0.010000000000000009,-0.97,0.7770847389838411
0.020000000000000018,-0.97,0.7549968206493304
0.030000000000000027,-0.97,0.7299292747889543
0.040000000000000036,-0.97,0.7019810315539518
0.050000000000000044,-0.97,0.6712623898920327
0.06000000000000005,-0.97,0.6378945822478248
0.07000000000000006,-0.97,0.6020092961137986
0.08000000000000007,-0.97,0.5637481543198974
0.09000000000000008,-0.97,0.5232621561129283
0.10000000000000009,-0.97,0.48071108123152095
0.1100000000000001,-0.97,0.43626285932849607
0.1200000000000001,-0.97,0.3900929072292433
0.13000000000000012,-0.97,0.34238343664165377
0.14000000000000012,-0.97,0.29332273504975287
0.15000000000000013,-0.97,0.24310442262902146
0.15999999999999992,-0.97,0.19192668811601948
0.16999999999999993,-0.97,0.13999150664798665
0.17999999999999994,-0.97,0.08750384265925018
0.18999999999999995,-0.97,0.03467084098024064
0.19999999999999996,-0.97,-0.01829899066851738
0.20999999999999996,-0.97,-0.07119660456112034
0.21999999999999997,-0.97,-0.12381323798215528
0.22999999999999998,-0.97,-0.17594123711776255
0.24,-0.97,-0.2273748765703713
0.25,-0.97,-0.2779111712628569
0.26,-0.97,-0.3273506775279051
0.27,-0.97,-0.3754982802210495
0.28,-0.97,-0.42216396275100787
0.29000000000000004,-0.97,-0.46716355698835643
0.30000000000000004,-0.97,-0.5103194700929996
0.31000000000000005,-0.97,-0.5514613853919749
0.32000000000000006,-0.97,-0.5904269345415503
0.33000000000000007,-0.97,-0.6270623383208982
0.3400000000000001,-0.97,-0.6612230135284262
0.3500000000000001,-0.97,-0.692774143585617
0.3600000000000001,-0.97,-0.7215912105964759
0.3700000000000001,-0.97,-0.7475604867627769
0.3800000000000001,-0.97,-0.770579483215725
0.3900000000000001,-0.97,-0.7905573544926993
0.40000000000000013,-0.97,-0.8074152570627913
0.4099999999999999,-0.97,-0.8210866604861993
0.41999999999999993,-0.97,-0.8315176099794818
0.42999999999999994,-0.97,-0.8386669393504362
0.43999999999999995,-0.97,-0.8425064334622534
0.44999999999999996,-0.97,-0.8430209395857712
0.45999999999999996,-0.97,-0.8402084272003763
0.47,-0.97,-0.8340799960075396
0.48,-0.97,-0.8246598321253645
0.49,-0.97,-0.8119851126370308
0.5,-0.97,-0.7961058588698301
0.51,-0.97,-0.7770847389838409
0.52,-0.97,-0.7549968206493303
0.53,-0.97,-0.7299292747889545
0.54,-0.97,-0.7019810315539514
0.55,-0.97,-0.6712623898920325
0.56,-0.97,-0.6378945822478247
0.5700000000000001,-0.97,-0.6020092961137984
0.5800000000000001,-0.97,-0.563748154319897
0.5900000000000001,-0.97,-0.5232621561129281
0.6000000000000001,-0.97,-0.48071108123152106
0.6100000000000001,-0.97,-0.4362628593284962
0.6200000000000001,-0.97,-0.3900929072292435
0.6300000000000001,-0.97,-0.3423834366416541
0.6400000000000001,-0.97,-0.2933227350497532
0.6500000000000001,-0.97,-0.2431044226290218
0.6600000000000001,-0.97,-0.19192668811601973
0.6699999999999999,-0.97,-0.13999150664798699