TITLE = "Solution" 
VARIABLES = "x", "y", "sol" 
ZONE STRANDID=1, SOLUTIONTIME= 1.0499999999999996, I= 201, J =201, DATAPACKING=POINT 
-1.0,-1.0,-0.07427113322233486
-0.99,-1.0,-0.09257824678810359
-0.98,-1.0,-0.11051999630877751
-0.97,-1.0,-0.12802557389580416
-0.96,-1.0,-0.14502589303198526
-0.95,-1.0,-0.16145386122439714
-0.94,-1.0,-0.17724464478780924
-0.9299999999999999,-1.0,-0.19233592471361954
-0.92,-1.0,-0.2066681426145111
-0.91,-1.0,-0.22018473577419628
-0.9,-1.0,-0.23283236037461774
-0.89,-1.0,-0.24456110201962813
-0.88,-1.0,-0.25532467272430653
-0.87,-1.0,-0.26508059359248953
-0.86,-1.0,-0.2737903624615664
-0.85,-1.0,-0.28141960585292625
-0.84,-1.0,-0.2879382146283729
-0.83,-1.0,-0.29332046281713864
-0.8200000000000001,-1.0,-0.2975451091445378
-0.81,-1.0,-0.3005954808615734
-0.8,-1.0,-0.30245953954466104
-0.79,-1.0,-0.3031299286057852
-0.78,-1.0,-0.3026040023255935
-0.77,-1.0,-0.3008838362948413
-0.76,-1.0,-0.29797621922298273
-0.75,-1.0,-0.29389262614623624
-0.74,-1.0,-0.28864917314086014
-0.73,-1.0,-0.2822665537203603
-0.72,-1.0,-0.2747699571676483
-0.71,-1.0,-0.26618896912444834
-0.7,-1.0,-0.2565574548302864
-0.69,-1.0,-0.24591342547186124
-0.6799999999999999,-1.0,-0.2342988881702561
-0.6699999999999999,-1.0,-0.2217596801980231
-0.6599999999999999,-1.0,-0.20834528808040945
-0.6499999999999999,-1.0,-0.19410865229465038
-0.64,-1.0,-0.1791059583380922
-0.63,-1.0,-0.16339641498970264
-0.62,-1.0,-0.14704202064006996
-0.61,-1.0,-0.1301073186120803
-0.6,-1.0,-0.11265914243790848
-0.59,-1.0,-0.09476635209760059
-0.5800000000000001,-1.0,-0.07649956226019158
-0.5700000000000001,-1.0,-0.05793086359986708
-0.56,-1.0,-0.039133538287007996
-0.55,-1.0,-0.020181770776943143
-0.54,-1.0,-0.0011503550377956959
-0.53,-1.0,0.01788560062713867
-0.52,-1.0,0.03685096999755142
-0.51,-1.0,0.055670905424990626
-0.5,-1.0,0.0742711332223348
-0.49,-1.0,0.09257824678810353
-0.48,-1.0,0.11051999630877746
-0.47,-1.0,0.12802557389580413
-0.45999999999999996,-1.0,0.14502589303198515
-0.44999999999999996,-1.0,0.16145386122439712
-0.43999999999999995,-1.0,0.17724464478780927
-0.42999999999999994,-1.0,0.1923359247136196
-0.42000000000000004,-1.0,0.20666814261451105
-0.41000000000000003,-1.0,0.22018473577419617
-0.4,-1.0,0.23283236037461771
-0.39,-1.0,0.24456110201962794
-0.38,-1.0,0.25532467272430653
-0.37,-1.0,0.2650805935924894
-0.36,-1.0,0.2737903624615666
-0.35,-1.0,0.2814196058529264
-0.33999999999999997,-1.0,0.287938214628373
-0.32999999999999996,-1.0,0.29332046281713864
-0.31999999999999995,-1.0,0.29754510914453786
-0.30999999999999994,-1.0,0.3005954808615735
-0.29999999999999993,-1.0,0.3024595395446608
-0.29000000000000004,-1.0,0.30312992860578497
-0.28,-1.0,0.3026040023255936
-0.27,-1.0,0.3008838362948413
-0.26,-1.0,0.29797621922298273
-0.25,-1.0,0.29389262614623646
-0.24,-1.0,0.2886491731408602
-0.22999999999999998,-1.0,0.28226655372036036
-0.21999999999999997,-1.0,0.2747699571676481
-0.20999999999999996,-1.0,0.26618896912444834
-0.19999999999999996,-1.0,0.2565574548302865
-0.18999999999999995,-1.0,0.2459134254718613
-0.17999999999999994,-1.0,0.23429888817025601
-0.16999999999999993,-1.0,0.22175968019802303
-0.16000000000000003,-1.0,0.20834528808040934
-0.15000000000000002,-1.0,0.1941086522946504
-0.14,-1.0,0.1791059583380922
-0.13,-1.0,0.16339641498970262
-0.12,-1.0,0.14704202064006996
-0.10999999999999999,-1.0,0.1301073186120804
-0.09999999999999998,-1.0,0.11265914243790846
-0.08999999999999997,-1.0,0.09476635209760062
-0.07999999999999996,-1.0,0.07649956226019158
-0.06999999999999995,-1.0,0.05793086359986706
-0.05999999999999994,-1.0,0.039133538287007996
-0.04999999999999993,-1.0,0.020181770776943123
-0.040000000000000036,-1.0,0.0011503550377956941
-0.030000000000000027,-1.0,-0.017885600627138683
-0.020000000000000018,-1.0,-0.03685096999755148
-0.010000000000000009,-1.0,-0.05567090542499068
0.0,-1.0,-0.07427113322233479
0.010000000000000009,-1.0,-0.0925782467881035
0.020000000000000018,-1.0,-0.11051999630877754
0.030000000000000027,-1.0,-0.12802557389580413
0.040000000000000036,-1.0,-0.14502589303198518
0.050000000000000044,-1.0,-0.1614538612243971
0.06000000000000005,-1.0,-0.1772446447878092
0.07000000000000006,-1.0,-0.1923359247136197
0.08000000000000007,-1.0,-0.20666814261451108
0.09000000000000008,-1.0,-0.22018473577419612
0.10000000000000009,-1.0,-0.23283236037461774
0.1100000000000001,-1.0,-0.24456110201962805
0.1200000000000001,-1.0,-0.2553246727243067
0.13000000000000012,-1.0,-0.26508059359248937
0.14000000000000012,-1.0,-0.2737903624615666
0.15000000000000013,-1.0,-0.28141960585292636
0.15999999999999992,-1.0,-0.2879382146283729
0.16999999999999993,-1.0,-0.29332046281713847
0.17999999999999994,-1.0,-0.2975451091445379
0.18999999999999995,-1.0,-0.3005954808615736
0.19999999999999996,-1.0,-0.30245953954466087
0.20999999999999996,-1.0,-0.3031299286057849
0.21999999999999997,-1.0,-0.30260400232559354
0.22999999999999998,-1.0,-0.3008838362948414
0.24,-1.0,-0.2979762192229827
0.25,-1.0,-0.29389262614623646
0.26,-1.0,-0.28864917314086025
0.27,-1.0,-0.28226655372036036
0.28,-1.0,-0.2747699571676483
0.29000000000000004,-1.0,-0.2661889691244482
0.30000000000000004,-1.0,-0.25655745483028625
0.31000000000000005,-1.0,-0.24591342547186118
0.32000000000000006,-1.0,-0.23429888817025613
0.33000000000000007,-1.0,-0.221759680198023
0.3400000000000001,-1.0,-0.20834528808040934
0.3500000000000001,-1.0,-0.19410865229465035
0.3600000000000001,-1.0,-0.17910595833809215
0.3700000000000001,-1.0,-0.16339641498970264
0.3800000000000001,-1.0,-0.14704202064007005
0.3900000000000001,-1.0,-0.1301073186120802
0.40000000000000013,-1.0,-0.11265914243790853
0.4099999999999999,-1.0,-0.09476635209760054
0.41999999999999993,-1.0,-0.07649956226019158
0.42999999999999994,-1.0,-0.05793086359986699
0.43999999999999995,-1.0,-0.03913353828700796
0.44999999999999996,-1.0,-0.020181770776943143
0.45999999999999996,-1.0,-0.0011503550377956542
0.47,-1.0,0.017885600627138704
0.48,-1.0,0.036850969997551504
0.49,-1.0,0.05567090542499067
0.5,-1.0,0.07427113322233483
0.51,-1.0,0.0925782467881036
0.52,-1.0,0.11051999630877757
0.53,-1.0,0.1280255738958042
0.54,-1.0,0.14502589303198515
0.55,-1.0,0.16145386122439714
0.56,-1.0,0.17724464478780927
0.5700000000000001,-1.0,0.19233592471361965
0.5800000000000001,-1.0,0.20666814261451102
0.5900000000000001,-1.0,0.22018473577419623
0.6000000000000001,-1.0,0.23283236037461763
0.6100000000000001,-1.0,0.24456110201962802
0.6200000000000001,-1.0,0.2553246727243065
0.6300000000000001,-1.0,0.26508059359248964
0.6400000000000001,-1.0,0.2737903624615665
0.6500000000000001,-1.0,0.28141960585292636
0.6600000000000001,-1.0,0.2879382146283731
0.6699999999999999,-1.0,0.29332046281713875
0.6799999999999999,-1.0,0.2975451091445378
0.69,-1.0,0.30059548086157345
0.7,-1.0,0.30245953954466087
0.71,-1.0,0.303129928605785
0.72,-1.0,0.30260400232559376
0.73,-1.0,0.30088383629484117
0.74,-1.0,0.29797621922298273
0.75,-1.0,0.29389262614623646
0.76,-1.0,0.28864917314086025
0.77,-1.0,0.28226655372036047
0.78,-1.0,0.2747699571676485
0.79,-1.0,0.26618896912444834
0.8,-1.0,0.25655745483028647
0.81,-1.0,0.24591342547186118
0.8200000000000001,-1.0,0.23429888817025618
0.8300000000000001,-1.0,0.2217596801980231
0.8400000000000001,-1.0,0.20834528808040934
0.8500000000000001,-1.0,0.1941086522946503
0.8600000000000001,-1.0,0.17910595833809229
0.8700000000000001,-1.0,0.16339641498970267
0.8800000000000001,-1.0,0.14704202064006994
0.8900000000000001,-1.0,0.13010731861208016
0.9000000000000001,-1.0,0.11265914243790842
0.9100000000000001,-1.0,0.0947663520976006
0.9199999999999999,-1.0,0.07649956226019156
0.9299999999999999,-1.0,0.057930863599867016
0.94,-1.0,0.03913353828700794
0.95,-1.0,0.020181770776943036
0.96,-1.0,0.001150355037795616
0.97,-1.0,-0.017885600627138766
0.98,-1.0,-0.03685096999755151
0.99,-1.0,-0.05567090542499073
1.0,-1.0,-0.07427113322233486

-1.0,-0.99,-0.09257824678810361
-0.99,-0.99,-0.10791597605679294
-0.98,-0.99,-0.12282781027010581
-0.97,-0.99,-0.1372548992309715
-0.96,-0.99,-0.1511403058103712
-0.95,-0.99,-0.16442923065217507
-0.94,-0.99,-0.1770692284411646
-0.9299999999999999,-0.99,-0.18901041488073272
-0.92,-0.99,-0.20020566356341113
-0.91,-0.99,-0.21061079195727206
-0.9,-0.99,-0.22018473577419623
-0.89,-0.99,-0.22888971103185665
-0.88,-0.99,-0.2366913631698367
-0.87,-0.99,-0.24355890263138305
-0.86,-0.99,-0.24946522637572185
-0.85,-0.99,-0.25438702484137665
-0.84,-0.99,-0.25830487393835927
-0.83,-0.99,-0.2612033117061789
-0.8200000000000001,-0.99,-0.2630708993351363
-0.81,-0.99,-0.2639002663100799
-0.8,-0.99,-0.2636881394984607
-0.79,-0.99,-0.2624353560678928
-0.78,-0.99,-0.26014686018223465
-0.77,-0.99,-0.2568316834892326
-0.76,-0.99,-0.2525029094767334
-0.75,-0.99,-0.24717762183813613
-0.74,-0.99,-0.24087683705085738
-0.73,-0.99,-0.23362542143389817
-0.72,-0.99,-0.22545199301184174
-0.71,-0.99,-0.21638880857258574
-0.7,-0.99,-0.2064716363645368
-0.69,-0.99,-0.195739614935675
-0.6799999999999999,-0.99,-0.184235098671586
-0.6699999999999999,-0.99,-0.17200349064205056
-0.6599999999999999,-0.99,-0.15909306341587096
-0.6499999999999999,-0.99,-0.14555476855109592
-0.64,-0.99,-0.13144203551249822
-0.63,-0.99,-0.11681056080988654
-0.62,-0.99,-0.1017180881894274
-0.61,-0.99,-0.08622418074545864
-0.6,-0.99,-0.07038998585216868
-0.59,-0.99,-0.054277993842845894
-0.5800000000000001,-0.99,-0.03795179138908196
-0.5700000000000001,-0.99,-0.021475810553229578
-0.56,-0.99,-0.004915074504488153
-0.55,-0.99,0.011665059097838545
-0.54,-0.99,0.02819915604116461
-0.53,-0.99,0.04462196379856519
-0.52,-0.99,0.06086866905068897
-0.51,-0.99,0.07687515347431942
-0.5,-0.99,0.09257824678810353
-0.49,-0.99,0.10791597605679284
-0.48,-0.99,0.12282781027010578
-0.47,-0.99,0.13725489923097145
-0.45999999999999996,-0.99,0.1511403058103712
-0.44999999999999996,-0.99,0.16442923065217507
-0.43999999999999995,-0.99,0.17706922844116463
-0.42999999999999994,-0.99,0.18901041488073267
-0.42000000000000004,-0.99,0.20020566356341107
-0.41000000000000003,-0.99,0.21061079195727203
-0.4,-0.99,0.2201847357741961
-0.39,-0.99,0.22888971103185668
-0.38,-0.99,0.23669136316983652
-0.37,-0.99,0.24355890263138325
-0.36,-0.99,0.24946522637572197
-0.35,-0.99,0.25438702484137676
-0.33999999999999997,-0.99,0.2583048739383592
-0.32999999999999996,-0.99,0.26120331170617905
-0.31999999999999995,-0.99,0.26307089933513633
-0.30999999999999994,-0.99,0.26390026631007973
-0.29999999999999993,-0.99,0.26368813949846054
-0.29000000000000004,-0.99,0.2624353560678929
-0.28,-0.99,0.26014686018223465
-0.27,-0.99,0.2568316834892326
-0.26,-0.99,0.2525029094767336
-0.25,-0.99,0.2471776218381361
-0.24,-0.99,0.24087683705085747
-0.22999999999999998,-0.99,0.23362542143389808
-0.21999999999999997,-0.99,0.22545199301184177
-0.20999999999999996,-0.99,0.21638880857258586
-0.19999999999999996,-0.99,0.2064716363645368
-0.18999999999999995,-0.99,0.1957396149356749
-0.17999999999999994,-0.99,0.18423509867158594
-0.16999999999999993,-0.99,0.17200349064205045
-0.16000000000000003,-0.99,0.15909306341587104
-0.15000000000000002,-0.99,0.14555476855109595
-0.14,-0.99,0.1314420355124982
-0.13,-0.99,0.11681056080988657
-0.12,-0.99,0.10171808818942749
-0.10999999999999999,-0.99,0.08622418074545861
-0.09999999999999998,-0.99,0.07038998585216873
-0.08999999999999997,-0.99,0.054277993842845915
-0.07999999999999996,-0.99,0.03795179138908197
-0.06999999999999995,-0.99,0.02147581055322956
-0.05999999999999994,-0.99,0.004915074504488146
-0.04999999999999993,-0.99,-0.011665059097838545
-0.040000000000000036,-0.99,-0.028199156041164623
-0.030000000000000027,-0.99,-0.044621963798565256
-0.020000000000000018,-0.99,-0.060868669050689043
-0.010000000000000009,-0.99,-0.07687515347431945
0.0,-0.99,-0.0925782467881035
0.010000000000000009,-0.99,-0.10791597605679293
0.020000000000000018,-0.99,-0.1228278102701058
0.030000000000000027,-0.99,-0.1372548992309714
0.040000000000000036,-0.99,-0.1511403058103712
0.050000000000000044,-0.99,-0.16442923065217502
0.06000000000000005,-0.99,-0.17706922844116477
0.07000000000000006,-0.99,-0.18901041488073267
0.08000000000000007,-0.99,-0.20020566356341105
0.09000000000000008,-0.99,-0.21061079195727211
0.10000000000000009,-0.99,-0.22018473577419614
0.1100000000000001,-0.99,-0.22888971103185685
0.1200000000000001,-0.99,-0.23669136316983652
0.13000000000000012,-0.99,-0.2435589026313832
0.14000000000000012,-0.99,-0.2494652263757219
0.15000000000000013,-0.99,-0.2543870248413766
0.15999999999999992,-0.99,-0.25830487393835916
0.16999999999999993,-0.99,-0.26120331170617894
0.17999999999999994,-0.99,-0.2630708993351365
0.18999999999999995,-0.99,-0.2639002663100797
0.19999999999999996,-0.99,-0.2636881394984604
0.20999999999999996,-0.99,-0.26243535606789287
0.21999999999999997,-0.99,-0.26014686018223476
0.22999999999999998,-0.99,-0.2568316834892326
0.24,-0.99,-0.2525029094767336
0.25,-0.99,-0.24717762183813613
0.26,-0.99,-0.24087683705085744
0.27,-0.99,-0.23362542143389814
0.28,-0.99,-0.2254519930118417
0.29000000000000004,-0.99,-0.2163888085725856
0.30000000000000004,-0.99,-0.20647163636453672
0.31000000000000005,-0.99,-0.195739614935675
0.32000000000000006,-0.99,-0.18423509867158588
0.33000000000000007,-0.99,-0.1720034906420505
0.3400000000000001,-0.99,-0.15909306341587093
0.3500000000000001,-0.99,-0.1455547685510959
0.3600000000000001,-0.99,-0.1314420355124982
0.3700000000000001,-0.99,-0.11681056080988661
0.3800000000000001,-0.99,-0.1017180881894273
0.3900000000000001,-0.99,-0.0862241807454587
0.40000000000000013,-0.99,-0.07038998585216862
0.4099999999999999,-0.99,-0.054277993842845915
0.41999999999999993,-0.99,-0.037951791389081904
0.42999999999999994,-0.99,-0.021475810553229537
0.43999999999999995,-0.99,-0.004915074504488181
0.44999999999999996,-0.99,0.011665059097838573
0.45999999999999996,-0.99,0.028199156041164627
0.47,-0.99,0.04462196379856526
0.48,-0.99,0.06086866905068899
0.49,-0.99,0.07687515347431945
0.5,-0.99,0.09257824678810361
0.51,-0.99,0.10791597605679296
0.52,-0.99,0.12282781027010588
0.53,-0.99,0.13725489923097142
0.54,-0.99,0.15114030581037122
0.55,-0.99,0.16442923065217505
0.56,-0.99,0.17706922844116468
0.5700000000000001,-0.99,0.18901041488073264
0.5800000000000001,-0.99,0.20020566356341113
0.5900000000000001,-0.99,0.210610791957272
0.6000000000000001,-0.99,0.22018473577419612
0.6100000000000001,-0.99,0.22888971103185662
0.6200000000000001,-0.99,0.23669136316983672
0.6300000000000001,-0.99,0.24355890263138313
0.6400000000000001,-0.99,0.24946522637572188
0.6500000000000001,-0.99,0.2543870248413768
0.6600000000000001,-0.99,0.2583048739383593
0.6699999999999999,-0.99,0.26120331170617905
0.6799999999999999,-0.99,0.26307089933513633
0.69,-0.99,0.26390026631007973
0.7,-0.99,0.26368813949846054
0.71,-0.99,0.26243535606789303
0.72,-0.99,0.26014686018223465
0.73,-0.99,0.2568316834892326
0.74,-0.99,0.25250290947673354
0.75,-0.99,0.24717762183813619
0.76,-0.99,0.24087683705085758
0.77,-0.99,0.2336254214338984
0.78,-0.99,0.22545199301184174
0.79,-0.99,0.21638880857258583
0.8,-0.99,0.20647163636453672
0.81,-0.99,0.19573961493567504
0.8200000000000001,-0.99,0.18423509867158597
0.8300000000000001,-0.99,0.17200349064205045
0.8400000000000001,-0.99,0.15909306341587093
0.8500000000000001,-0.99,0.145554768551096
0.8600000000000001,-0.99,0.13144203551249825
0.8700000000000001,-0.99,0.11681056080988654
0.8800000000000001,-0.99,0.10171808818942726
0.8900000000000001,-0.99,0.08622418074545858
0.9000000000000001,-0.99,0.07038998585216868
0.9100000000000001,-0.99,0.05427799384284588
0.9199999999999999,-0.99,0.037951791389081925
0.9299999999999999,-0.99,0.02147581055322953
0.94,-0.99,0.004915074504488071
0.95,-0.99,-0.011665059097838607
0.96,-0.99,-0.028199156041164714
0.97,-0.99,-0.04462196379856527
0.98,-0.99,-0.06086866905068907
0.99,-0.99,-0.0768751534743195
1.0,-0.99,-0.09257824678810361

-1.0,-0.98,-0.11051999630877757
-0.99,-0.98,-0.12282781027010581
-0.98,-0.98,-0.13465087897898687
-0.97,-0.98,-0.14594254218467287
-0.96,-0.98,-0.15665823685116131
-0.95,-0.98,-0.16675567302713865
-0.94,-0.98,-0.17619500074509847
-0.9299999999999999,-0.98,-0.18493896729095619
-0.92,-0.98,-0.19295306422349362
-0.91,-0.98,-0.20020566356341113
-0.9,-0.98,-0.206668142614511
-0.89,-0.98,-0.2123149969244048
-0.88,-0.98,-0.21712394093893322
-0.87,-0.98,-0.22107599595306895
-0.86,-0.98,-0.22415556501119324
-0.85,-0.98,-0.22635049446115485
-0.84,-0.98,-0.2276521219191826
-0.83,-0.98,-0.2280553104563569
-0.8200000000000001,-0.98,-0.227558468871721
-0.81,-0.98,-0.2261635579720236
-0.8,-0.98,-0.22387608283331173
-0.79,-0.98,-0.2207050710749102
-0.78,-0.98,-0.21666303723153194
-0.77,-0.98,-0.21176593336412686
-0.76,-0.98,-0.20603308610438603
-0.75,-0.98,-0.19948712038135452
-0.74,-0.98,-0.1921538701311742
-0.73,-0.98,-0.18406227634233885
-0.72,-0.98,-0.1752442728388356
-0.71,-0.98,-0.16573466025193018
-0.7,-0.98,-0.15557096867797432
-0.69,-0.98,-0.1447933095642615
-0.6799999999999999,-0.98,-0.13344421740746942
-0.6699999999999999,-0.98,-0.12156848188943381
-0.6599999999999999,-0.98,-0.10921297111273703
-0.6499999999999999,-0.98,-0.09642644663371883
-0.64,-0.98,-0.08325937102289027
-0.63,-0.98,-0.06976370871222298
-0.62,-0.98,-0.05599272091527521
-0.61,-0.98,-0.04200075542951577
-0.6,-0.98,-0.027843032150396043
-0.59,-0.98,-0.01357542514365004
-0.5800000000000001,-0.98,0.0007457578641160909
-0.5700000000000001,-0.98,0.015063997706296961
-0.56,-0.98,0.029322786831616977
-0.55,-0.98,0.04346585231361959
-0.54,-0.98,0.057437377934199424
-0.53,-0.98,0.07118222446471492
-0.52,-0.98,0.08464614727533318
-0.51,-0.98,0.09777601041380188
-0.5,-0.98,0.11051999630877749
-0.49,-0.98,0.12282781027010574
-0.48,-0.98,0.1346508789789868
-0.47,-0.98,0.14594254218467284
-0.45999999999999996,-0.98,0.15665823685116137
-0.44999999999999996,-0.98,0.1667556730271387
-0.43999999999999995,-0.98,0.17619500074509845
-0.42999999999999994,-0.98,0.1849389672909561
-0.42000000000000004,-0.98,0.19295306422349368
-0.41000000000000003,-0.98,0.20020566356341107
-0.4,-0.98,0.20666814261451105
-0.39,-0.98,0.21231499692440464
-0.38,-0.98,0.2171239409389334
-0.37,-0.98,0.22107599595306904
-0.36,-0.98,0.22415556501119335
-0.35,-0.98,0.2263504944611548
-0.33999999999999997,-0.98,0.22765212191918277
-0.32999999999999996,-0.98,0.22805531045635694
-0.31999999999999995,-0.98,0.22755846887172085
-0.30999999999999994,-0.98,0.22616355797202345
-0.29999999999999993,-0.98,0.22387608283331176
-0.29000000000000004,-0.98,0.22070507107491016
-0.28,-0.98,0.21666303723153188
-0.27,-0.98,0.21176593336412702
-0.26,-0.98,0.20603308610438603
-0.25,-0.98,0.19948712038135455
-0.24,-0.98,0.19215387013117405
-0.22999999999999998,-0.98,0.18406227634233885
-0.21999999999999997,-0.98,0.1752442728388357
-0.20999999999999996,-0.98,0.16573466025193023
-0.19999999999999996,-0.98,0.15557096867797424
-0.18999999999999995,-0.98,0.14479330956426145
-0.17999999999999994,-0.98,0.13344421740746937
-0.16999999999999993,-0.98,0.1215684818894339
-0.16000000000000003,-0.98,0.10921297111273709
-0.15000000000000002,-0.98,0.09642644663371878
-0.14,-0.98,0.08325937102289033
-0.13,-0.98,0.06976370871222302
-0.12,-0.98,0.05599272091527519
-0.10999999999999999,-0.98,0.042000755429515826
-0.09999999999999998,-0.98,0.02784303215039607
-0.08999999999999997,-0.98,0.013575425143650049
-0.07999999999999996,-0.98,-0.0007457578641161186
-0.06999999999999995,-0.98,-0.015063997706296961
-0.05999999999999994,-0.98,-0.029322786831616973
-0.04999999999999993,-0.98,-0.0434658523136196
-0.040000000000000036,-0.98,-0.05743737793419949
-0.030000000000000027,-0.98,-0.07118222446471498
-0.020000000000000018,-0.98,-0.08464614727533319
-0.010000000000000009,-0.98,-0.09777601041380182
0.0,-0.98,-0.11051999630877754
0.010000000000000009,-0.98,-0.12282781027010578
0.020000000000000018,-0.98,-0.13465087897898675
0.030000000000000027,-0.98,-0.1459425421846728
0.040000000000000036,-0.98,-0.1566582368511613
0.050000000000000044,-0.98,-0.1667556730271388
0.06000000000000005,-0.98,-0.17619500074509842
0.07000000000000006,-0.98,-0.1849389672909561
0.08000000000000007,-0.98,-0.1929530642234937
0.09000000000000008,-0.98,-0.20020566356341107
0.10000000000000009,-0.98,-0.20666814261451116
0.1100000000000001,-0.98,-0.21231499692440464
0.1200000000000001,-0.98,-0.21712394093893336
0.13000000000000012,-0.98,-0.22107599595306904
0.14000000000000012,-0.98,-0.22415556501119321
0.15000000000000013,-0.98,-0.22635049446115474
0.15999999999999992,-0.98,-0.22765212191918272
0.16999999999999993,-0.98,-0.2280553104563571
0.17999999999999994,-0.98,-0.2275584688717208
0.18999999999999995,-0.98,-0.22616355797202337
0.19999999999999996,-0.98,-0.22387608283331173
0.20999999999999996,-0.98,-0.22070507107491033
0.21999999999999997,-0.98,-0.2166630372315319
0.22999999999999998,-0.98,-0.21176593336412697
0.24,-0.98,-0.20603308610438598
0.25,-0.98,-0.19948712038135452
0.26,-0.98,-0.19215387013117413
0.27,-0.98,-0.18406227634233882
0.28,-0.98,-0.1752442728388355
0.29000000000000004,-0.98,-0.16573466025193015
0.30000000000000004,-0.98,-0.15557096867797435
0.31000000000000005,-0.98,-0.14479330956426142
0.32000000000000006,-0.98,-0.1334442174074694
0.33000000000000007,-0.98,-0.12156848188943381
0.3400000000000001,-0.98,-0.10921297111273702
0.3500000000000001,-0.98,-0.09642644663371877
0.3600000000000001,-0.98,-0.08325937102289034
0.3700000000000001,-0.98,-0.06976370871222287
0.3800000000000001,-0.98,-0.055992720915275296
0.3900000000000001,-0.98,-0.04200075542951573
0.40000000000000013,-0.98,-0.027843032150396067
0.4099999999999999,-0.98,-0.013575425143650016
0.41999999999999993,-0.98,0.0007457578641161325
0.42999999999999994,-0.98,0.015063997706296912
0.43999999999999995,-0.98,0.029322786831616987
0.44999999999999996,-0.98,0.043465852313619595
0.45999999999999996,-0.98,0.05743737793419949
0.47,-0.98,0.07118222446471494
0.48,-0.98,0.08464614727533322
0.49,-0.98,0.09777601041380195
0.5,-0.98,0.11051999630877757
0.51,-0.98,0.12282781027010586
0.52,-0.98,0.13465087897898684
0.53,-0.98,0.14594254218467287
0.54,-0.98,0.1566582368511613
0.55,-0.98,0.16675567302713878
0.56,-0.98,0.17619500074509842
0.5700000000000001,-0.98,0.18493896729095616
0.5800000000000001,-0.98,0.19295306422349362
0.5900000000000001,-0.98,0.20020566356341105
0.6000000000000001,-0.98,0.20666814261451097
0.6100000000000001,-0.98,0.21231499692440478
0.6200000000000001,-0.98,0.2171239409389333
0.6300000000000001,-0.98,0.22107599595306904
0.6400000000000001,-0.98,0.22415556501119344
0.6500000000000001,-0.98,0.22635049446115496
0.6600000000000001,-0.98,0.22765212191918277
0.6699999999999999,-0.98,0.2280553104563569
0.6799999999999999,-0.98,0.22755846887172085
0.69,-0.98,0.2261635579720234
0.7,-0.98,0.2238760828333119
0.71,-0.98,0.22070507107491016
0.72,-0.98,0.21666303723153188
0.73,-0.98,0.21176593336412697
0.74,-0.98,0.2060330861043861
0.75,-0.98,0.19948712038135463
0.76,-0.98,0.1921538701311743
0.77,-0.98,0.1840622763423388
0.78,-0.98,0.1752442728388357
0.79,-0.98,0.16573466025193018
0.8,-0.98,0.15557096867797435
0.81,-0.98,0.14479330956426148
0.8200000000000001,-0.98,0.13344421740746934
0.8300000000000001,-0.98,0.12156848188943382
0.8400000000000001,-0.98,0.10921297111273712
0.8500000000000001,-0.98,0.09642644663371885
0.8600000000000001,-0.98,0.0832593710228903
0.8700000000000001,-0.98,0.06976370871222284
0.8800000000000001,-0.98,0.05599272091527516
0.8900000000000001,-0.98,0.042000755429515785
0.9000000000000001,-0.98,0.027843032150396033
0.9100000000000001,-0.98,0.013575425143650021
0.9199999999999999,-0.98,-0.000745757864116136
0.9299999999999999,-0.98,-0.015063997706297013
0.94,-0.98,-0.029322786831617022
0.95,-0.98,-0.043465852313619685
0.96,-0.98,-0.05743737793419949
0.97,-0.98,-0.071182224464715
0.98,-0.98,-0.08464614727533323
0.99,-0.98,-0.09777601041380195
1.0,-0.98,-0.11051999630877757

-1.0,-0.97,-0.12802557389580416
-0.99,-0.97,-0.1372548992309715
-0.98,-0.97,-0.14594254218467287
-0.97,-0.97,-0.15405421659917667
-0.96,-0.97,-0.16155790940144032
-0.95,-0.97,-0.16842400694408471
-0.94,-0.97,-0.17462541187693023
-0.9299999999999999,-0.97,-0.18013765008785937
-0.92,-0.97,-0.18493896729095613
-0.91,-0.97,-0.1890104148807326
-0.9,-0.97,-0.1923359247136197
-0.89,-0.97,-0.19490237252158757
-0.88,-0.97,-0.19669962970763705
-0.87,-0.97,-0.1977206033187434
-0.86,-0.97,-0.197961264038502
-0.85,-0.97,-0.1974206620889992
-0.84,-0.97,-0.19610093097915252
-0.83,-0.97,-0.19400727908472468
-0.8200000000000001,-0.97,-0.1911479690932442
-0.81,-0.97,-0.18753428539495284
-0.8,-0.97,-0.1831804895484731
-0.79,-0.97,-0.17810376399695083
-0.78,-0.97,-0.17232414425680237
-0.77,-0.97,-0.1658644398466854
-0.76,-0.97,-0.15875014426874795
-0.75,-0.97,-0.15100933439742406
-0.74,-0.97,-0.14267255967283596
-0.73,-0.97,-0.13377272153611156
-0.72,-0.97,-0.12434494358242726
-0.71,-0.97,-0.1144264329442242
-0.7,-0.97,-0.10405633345165494
-0.69,-0.97,-0.09327557114976873
-0.6799999999999999,-0.97,-0.08212669278210932
-0.6699999999999999,-0.97,-0.07065369787815592
-0.6599999999999999,-0.97,-0.05890186510728173
-0.6499999999999999,-0.97,-0.046917573584531386
-0.64,-0.97,-0.03474811983344359
-0.63,-0.97,-0.022441531128278937
-0.62,-0.97,-0.010046375952311344
-0.61,-0.97,0.0023884276797873777
-0.6,-0.97,0.014813805279002869
-0.59,-0.97,0.027180719556565928
-0.5800000000000001,-0.97,0.03944036395172889
-0.5700000000000001,-0.97,0.05154435524896267
-0.56,-0.97,0.06344492452440469
-0.55,-0.97,0.07509510566797784
-0.54,-0.97,0.08644892073716992
-0.53,-0.97,0.09746156141096741
-0.52,-0.97,0.10808956582782783
-0.51,-0.97,0.11829099010979124
-0.5,-0.97,0.1280255738958041
-0.49,-0.97,0.13725489923097142
-0.48,-0.97,0.1459425421846728
-0.47,-0.97,0.15405421659917673
-0.45999999999999996,-0.97,0.16155790940144038
-0.44999999999999996,-0.97,0.16842400694408466
-0.43999999999999995,-0.97,0.17462541187693015
-0.42999999999999994,-0.97,0.18013765008785945
-0.42000000000000004,-0.97,0.18493896729095613
-0.41000000000000003,-0.97,0.1890104148807326
-0.4,-0.97,0.1923359247136196
-0.39,-0.97,0.1949023725215877
-0.38,-0.97,0.19669962970763716
-0.37,-0.97,0.19772060331874353
-0.36,-0.97,0.19796126403850195
-0.35,-0.97,0.1974206620889994
-0.33999999999999997,-0.97,0.19610093097915254
-0.32999999999999996,-0.97,0.1940072790847246
-0.31999999999999995,-0.97,0.19114796909324405
-0.30999999999999994,-0.97,0.18753428539495287
-0.29999999999999993,-0.97,0.1831804895484731
-0.29000000000000004,-0.97,0.1781037639969508
-0.28,-0.97,0.17232414425680254
-0.27,-0.97,0.16586443984668534
-0.26,-0.97,0.158750144268748
-0.25,-0.97,0.15100933439742395
-0.24,-0.97,0.1426725596728359
-0.22999999999999998,-0.97,0.1337727215361116
-0.21999999999999997,-0.97,0.12434494358242734
-0.20999999999999996,-0.97,0.11442643294422414
-0.19999999999999996,-0.97,0.10405633345165491
-0.18999999999999995,-0.97,0.09327557114976873
-0.17999999999999994,-0.97,0.0821266927821094
-0.16999999999999993,-0.97,0.07065369787815597
-0.16000000000000003,-0.97,0.05890186510728166
-0.15000000000000002,-0.97,0.046917573584531455
-0.14,-0.97,0.03474811983344361
-0.13,-0.97,0.022441531128278933
-0.12,-0.97,0.010046375952311391
-0.10999999999999999,-0.97,-0.0023884276797873465
-0.09999999999999998,-0.97,-0.014813805279002858
-0.08999999999999997,-0.97,-0.027180719556565987
-0.07999999999999996,-0.97,-0.039440363951728875
-0.06999999999999995,-0.97,-0.05154435524896265
-0.05999999999999994,-0.97,-0.06344492452440471
-0.04999999999999993,-0.97,-0.07509510566797792
-0.040000000000000036,-0.97,-0.08644892073716995
-0.030000000000000027,-0.97,-0.09746156141096743
-0.020000000000000018,-0.97,-0.10808956582782775
-0.010000000000000009,-0.97,-0.11829099010979127
0.0,-0.97,-0.12802557389580413
0.010000000000000009,-0.97,-0.1372548992309714
0.020000000000000018,-0.97,-0.14594254218467279
0.030000000000000027,-0.97,-0.15405421659917667
0.040000000000000036,-0.97,-0.16155790940144044
0.050000000000000044,-0.97,-0.1684240069440847
0.06000000000000005,-0.97,-0.1746254118769302
0.07000000000000006,-0.97,-0.1801376500878595
0.08000000000000007,-0.97,-0.1849389672909561
0.09000000000000008,-0.97,-0.18901041488073275
0.10000000000000009,-0.97,-0.19233592471361954
0.1100000000000001,-0.97,-0.19490237252158768
0.1200000000000001,-0.97,-0.19669962970763716
0.13000000000000012,-0.97,-0.1977206033187434
0.14000000000000012,-0.97,-0.1979612640385019
0.15000000000000013,-0.97,-0.1974206620889993
0.15999999999999992,-0.97,-0.1961009309791527
0.16999999999999993,-0.97,-0.19400727908472454
0.17999999999999994,-0.97,-0.191147969093244
0.18999999999999995,-0.97,-0.18753428539495282
0.19999999999999996,-0.97,-0.1831804895484732
0.20999999999999996,-0.97,-0.17810376399695083
0.21999999999999997,-0.97,-0.17232414425680248
0.22999999999999998,-0.97,-0.16586443984668528
0.24,-0.97,-0.15875014426874795
0.25,-0.97,-0.151009334397424
0.26,-0.97,-0.14267255967283593
0.27,-0.97,-0.13377272153611147
0.28,-0.97,-0.12434494358242723
0.29000000000000004,-0.97,-0.11442643294422422
0.30000000000000004,-0.97,-0.10405633345165484
0.31000000000000005,-0.97,-0.09327557114976875
0.32000000000000006,-0.97,-0.08212669278210934
0.33000000000000007,-0.97,-0.07065369787815592
0.3400000000000001,-0.97,-0.058901865107281653
0.3500000000000001,-0.97,-0.04691757358453143
0.3600000000000001,-0.97,-0.034748119833443475
0.3700000000000001,-0.97,-0.022441531128279065
0.3800000000000001,-0.97,-0.010046375952311302
0.3900000000000001,-0.97,0.0023884276797873534
0.40000000000000013,-0.97,0.014813805279002869
0.4099999999999999,-0.97,0.02718071955656598
0.41999999999999993,-0.97,0.03944036395172882
0.42999999999999994,-0.97,0.051544355248962656
0.43999999999999995,-0.97,0.06344492452440469
0.44999999999999996,-0.97,0.07509510566797793
0.45999999999999996,-0.97,0.08644892073716992
0.47,-0.97,0.09746156141096746
0.48,-0.97,0.10808956582782789
0.49,-0.97,0.11829099010979133
0.5,-0.97,0.12802557389580418
0.51,-0.97,0.13725489923097145
0.52,-0.97,0.14594254218467284
0.53,-0.97,0.1540542165991767
0.54,-0.97,0.1615579094014405
0.55,-0.97,0.1684240069440847
0.56,-0.97,0.17462541187693023