TITLE = "Solution" 
VARIABLES = "x", "y", "sol" 
ZONE STRANDID=1, SOLUTIONTIME= 0.8500000000000006, I= 201, J =201, DATAPACKING=POINT 
-1.0,-1.0,0.5118959596004756
-0.99,-1.0,0.5407445162356689
-0.98,-1.0,0.567459001307951
-0.97,-1.0,0.5919339849494275
-0.96,-1.0,0.6140728755812235
-0.95,-1.0,0.6337883011163115
-0.94,-1.0,0.651002453777225
-0.9299999999999999,-1.0,0.6656473971678114
-0.92,-1.0,0.6776653343871446
-0.91,-1.0,0.6870088361274937
-0.9,-1.0,0.69364102785613
-0.89,-1.0,0.69753573534226
-0.88,-1.0,0.6986775879547591
-0.87,-1.0,0.697062079323028
-0.86,-1.0,0.6926955851215812
-0.85,-1.0,0.6855953379081698
-0.84,-1.0,0.6757893591147508
-0.83,-1.0,0.6633163484596968
-0.8200000000000001,-1.0,0.6482255312176854
-0.81,-1.0,0.6305764639500343
-0.8,-1.0,0.6104387994621555
-0.79,-1.0,0.5878920119157589
-0.78,-1.0,0.5630250831806436
-0.77,-1.0,0.5359361516639072
-0.76,-1.0,0.5067321250024908
-0.75,-1.0,0.4755282581475765
-0.74,-1.0,0.44244769850595056
-0.73,-1.0,0.40762099993344725
-0.72,-1.0,0.37118560749852747
-0.71,-1.0,0.3332853150493845
-0.7,-1.0,0.29406969772531855
-0.69,-1.0,0.2536935216519962
-0.6799999999999999,-1.0,0.21231613315025893
-0.6699999999999999,-1.0,0.17010082986899205
-0.6599999999999999,-1.0,0.1272142163239095
-0.6499999999999999,-1.0,0.0838255463856436
-0.64,-1.0,0.04010605531204283
-0.63,-1.0,-0.003771716039160832
-0.62,-1.0,-0.047634602150290944
-0.61,-1.0,-0.09130949624891366
-0.6,-1.0,-0.13462403348118251
-0.59,-1.0,-0.17740727115717203
-0.5800000000000001,-1.0,-0.2194903633835765
-0.5700000000000001,-1.0,-0.2607072274213149
-0.56,-1.0,-0.3008951991382239
-0.55,-1.0,-0.3398956749700748
-0.54,-1.0,-0.37755473785638194
-0.53,-1.0,-0.4137237646807226
-0.52,-1.0,-0.44826001281827704
-0.51,-1.0,-0.48102718347575757
-0.5,-1.0,-0.5118959596004758
-0.49,-1.0,-0.5407445162356692
-0.48,-1.0,-0.567459001307951
-0.47,-1.0,-0.5919339849494281
-0.45999999999999996,-1.0,-0.6140728755812235
-0.44999999999999996,-1.0,-0.6337883011163115
-0.43999999999999995,-1.0,-0.6510024537772257
-0.42999999999999994,-1.0,-0.6656473971678112
-0.42000000000000004,-1.0,-0.6776653343871448
-0.41000000000000003,-1.0,-0.6870088361274941
-0.4,-1.0,-0.6936410278561302
-0.39,-1.0,-0.6975357353422599
-0.38,-1.0,-0.6986775879547591
-0.37,-1.0,-0.6970620793230278
-0.36,-1.0,-0.6926955851215815
-0.35,-1.0,-0.6855953379081698
-0.33999999999999997,-1.0,-0.675789359114751
-0.32999999999999996,-1.0,-0.6633163484596964
-0.31999999999999995,-1.0,-0.6482255312176857
-0.30999999999999994,-1.0,-0.6305764639500342
-0.29999999999999993,-1.0,-0.6104387994621555
-0.29000000000000004,-1.0,-0.5878920119157589
-0.28,-1.0,-0.5630250831806435
-0.27,-1.0,-0.5359361516639073
-0.26,-1.0,-0.5067321250024908
-0.25,-1.0,-0.4755282581475767
-0.24,-1.0,-0.44244769850595034
-0.22999999999999998,-1.0,-0.40762099993344697
-0.21999999999999997,-1.0,-0.37118560749852725
-0.20999999999999996,-1.0,-0.3332853150493844
-0.19999999999999996,-1.0,-0.29406969772531855
-0.18999999999999995,-1.0,-0.25369352165199627
-0.17999999999999994,-1.0,-0.21231613315025882
-0.16999999999999993,-1.0,-0.17010082986899205
-0.16000000000000003,-1.0,-0.12721421632390953
-0.15000000000000002,-1.0,-0.08382554638564352
-0.14,-1.0,-0.040106055312042775
-0.13,-1.0,0.003771716039160815
-0.12,-1.0,0.04763460215029097
-0.10999999999999999,-1.0,0.09130949624891362
-0.09999999999999998,-1.0,0.13462403348118257
-0.08999999999999997,-1.0,0.17740727115717192
-0.07999999999999996,-1.0,0.21949036338357655
-0.06999999999999995,-1.0,0.2607072274213147
-0.05999999999999994,-1.0,0.30089519913822377
-0.04999999999999993,-1.0,0.3398956749700749
-0.040000000000000036,-1.0,0.37755473785638216
-0.030000000000000027,-1.0,0.41372376468072247
-0.020000000000000018,-1.0,0.448260012818277
-0.010000000000000009,-1.0,0.48102718347575785
0.0,-1.0,0.5118959596004757
0.010000000000000009,-1.0,0.540744516235669
0.020000000000000018,-1.0,0.567459001307951
0.030000000000000027,-1.0,0.5919339849494278
0.040000000000000036,-1.0,0.6140728755812237
0.050000000000000044,-1.0,0.6337883011163112
0.06000000000000005,-1.0,0.6510024537772253
0.07000000000000006,-1.0,0.6656473971678114
0.08000000000000007,-1.0,0.6776653343871444
0.09000000000000008,-1.0,0.6870088361274937
0.10000000000000009,-1.0,0.6936410278561296
0.1100000000000001,-1.0,0.6975357353422602
0.1200000000000001,-1.0,0.6986775879547592
0.13000000000000012,-1.0,0.6970620793230281
0.14000000000000012,-1.0,0.6926955851215815
0.15000000000000013,-1.0,0.6855953379081701
0.15999999999999992,-1.0,0.6757893591147508
0.16999999999999993,-1.0,0.6633163484596969
0.17999999999999994,-1.0,0.6482255312176857
0.18999999999999995,-1.0,0.6305764639500344
0.19999999999999996,-1.0,0.6104387994621553
0.20999999999999996,-1.0,0.5878920119157589
0.21999999999999997,-1.0,0.5630250831806435
0.22999999999999998,-1.0,0.535936151663907
0.24,-1.0,0.5067321250024909
0.25,-1.0,0.4755282581475768
0.26,-1.0,0.44244769850595045
0.27,-1.0,0.4076209999334469
0.28,-1.0,0.37118560749852725
0.29000000000000004,-1.0,0.3332853150493844
0.30000000000000004,-1.0,0.2940696977253183
0.31000000000000005,-1.0,0.25369352165199616
0.32000000000000006,-1.0,0.21231613315025882
0.33000000000000007,-1.0,0.1701008298689919
0.3400000000000001,-1.0,0.12721421632390945
0.3500000000000001,-1.0,0.0838255463856434
0.3600000000000001,-1.0,0.04010605531204265
0.3700000000000001,-1.0,-0.003771716039160898
0.3800000000000001,-1.0,-0.047634602150291076
0.3900000000000001,-1.0,-0.09130949624891366
0.40000000000000013,-1.0,-0.1346240334811827
0.4099999999999999,-1.0,-0.17740727115717192
0.41999999999999993,-1.0,-0.21949036338357655
0.42999999999999994,-1.0,-0.2607072274213148
0.43999999999999995,-1.0,-0.30089519913822377
0.44999999999999996,-1.0,-0.33989567497007483
0.45999999999999996,-1.0,-0.37755473785638205
0.47,-1.0,-0.41372376468072225
0.48,-1.0,-0.4482600128182771
0.49,-1.0,-0.4810271834757578
0.5,-1.0,-0.5118959596004755
0.51,-1.0,-0.5407445162356692
0.52,-1.0,-0.5674590013079508
0.53,-1.0,-0.591933984949428
0.54,-1.0,-0.6140728755812236
0.55,-1.0,-0.6337883011163113
0.56,-1.0,-0.6510024537772254
0.5700000000000001,-1.0,-0.665647397167811
0.5800000000000001,-1.0,-0.6776653343871446
0.5900000000000001,-1.0,-0.6870088361274941
0.6000000000000001,-1.0,-0.69364102785613
0.6100000000000001,-1.0,-0.6975357353422603
0.6200000000000001,-1.0,-0.6986775879547593
0.6300000000000001,-1.0,-0.697062079323028
0.6400000000000001,-1.0,-0.6926955851215814
0.6500000000000001,-1.0,-0.6855953379081703
0.6600000000000001,-1.0,-0.6757893591147508
0.6699999999999999,-1.0,-0.6633163484596968
0.6799999999999999,-1.0,-0.6482255312176857
0.69,-1.0,-0.6305764639500344
0.7,-1.0,-0.6104387994621554
0.71,-1.0,-0.5878920119157587
0.72,-1.0,-0.5630250831806438
0.73,-1.0,-0.535936151663907
0.74,-1.0,-0.506732125002491
0.75,-1.0,-0.47552825814757654
0.76,-1.0,-0.44244769850595056
0.77,-1.0,-0.4076209999334468
0.78,-1.0,-0.37118560749852725
0.79,-1.0,-0.3332853150493844
0.8,-1.0,-0.29406969772531844
0.81,-1.0,-0.25369352165199605
0.8200000000000001,-1.0,-0.21231613315025866
0.8300000000000001,-1.0,-0.17010082986899197
0.8400000000000001,-1.0,-0.1272142163239094
0.8500000000000001,-1.0,-0.08382554638564337
0.8600000000000001,-1.0,-0.04010605531204267
0.8700000000000001,-1.0,0.0037717160391609085
0.8800000000000001,-1.0,0.04763460215029106
0.8900000000000001,-1.0,0.09130949624891366
0.9000000000000001,-1.0,0.13462403348118268
0.9100000000000001,-1.0,0.17740727115717198
0.9199999999999999,-1.0,0.21949036338357672
0.9299999999999999,-1.0,0.2607072274213149
0.94,-1.0,0.3008951991382239
0.95,-1.0,0.339895674970075
0.96,-1.0,0.37755473785638194
0.97,-1.0,0.4137237646807223
0.98,-1.0,0.4482600128182771
0.99,-1.0,0.4810271834757578
1.0,-1.0,0.5118959596004756

-1.0,-0.99,0.540744516235669
-0.99,-0.99,0.5702771081955385
-0.98,-0.99,0.5975590769441875
-0.97,-0.99,0.6224827530149128
-0.96,-0.99,0.644949774044807
-0.95,-0.99,0.6648714729660697
-0.94,-0.99,0.6821692279344193
-0.9299999999999999,-0.99,0.6967747726135863
-0.92,-0.99,0.7086304655913613
-0.91,-0.99,0.7176895178639127
-0.9,-0.99,0.7239161774906067
-0.89,-0.99,0.7272858706905883
-0.88,-0.99,0.7277852988242621
-0.87,-0.99,0.725412490876953
-0.86,-0.99,0.7201768112375951
-0.85,-0.99,0.7120989227417709
-0.84,-0.99,0.7012107051249374
-0.83,-0.99,0.6875551292076738
-0.8200000000000001,-0.99,0.6711860873094881
-0.81,-0.99,0.6521681805604471
-0.8,-0.99,0.6305764639500341
-0.79,-0.99,0.6064961501193945
-0.78,-0.99,0.5800222730659677
-0.77,-0.99,0.55125931308772
-0.76,-0.99,0.5203207844471391
-0.75,-0.99,0.48732878738230123
-0.74,-0.99,0.45241352623301
-0.73,-0.99,0.4157127955837566
-0.72,-0.99,0.37737143645144494
-0.71,-0.99,0.33754076466406924
-0.7,-0.99,0.2963779736862714
-0.69,-0.99,0.2540455142485506
-0.6799999999999999,-0.99,0.2107104532284459
-0.6699999999999999,-0.99,0.16654381431389792
-0.6599999999999999,-0.99,0.12171990305088434
-0.6499999999999999,-0.99,0.07641561893906294
-0.64,-0.99,0.03080975729026455
-0.63,-0.99,-0.014917696394919189
-0.62,-0.99,-0.06058627674767951
-0.61,-0.99,-0.10601575074535352
-0.6,-0.99,-0.15102682900882525
-0.59,-0.99,-0.195441873375794
-0.5800000000000001,-0.99,-0.23908559795744733
-0.5700000000000001,-0.99,-0.28178576091178226
-0.56,-0.99,-0.3233738442034669
-0.55,-0.99,-0.36368571866753724
-0.54,-0.99,-0.402562291752227
-0.53,-0.99,-0.4398501353845877
-0.52,-0.99,-0.47540209148099755
-0.51,-0.99,-0.5090778527128885
-0.5,-0.99,-0.5407445162356691
-0.49,-0.99,-0.5702771081955385
-0.48,-0.99,-0.5975590769441881
-0.47,-0.99,-0.6224827530149128
-0.45999999999999996,-0.99,-0.6449497740448067
-0.44999999999999996,-0.99,-0.6648714729660703
-0.43999999999999995,-0.99,-0.682169227934419
-0.42999999999999994,-0.99,-0.6967747726135866
-0.42000000000000004,-0.99,-0.7086304655913616
-0.41000000000000003,-0.99,-0.7176895178639126
-0.4,-0.99,-0.7239161774906065
-0.39,-0.99,-0.7272858706905878
-0.38,-0.99,-0.7277852988242619
-0.37,-0.99,-0.725412490876953
-0.36,-0.99,-0.7201768112375951
-0.35,-0.99,-0.7120989227417711
-0.33999999999999997,-0.99,-0.7012107051249373
-0.32999999999999996,-0.99,-0.687555129207674
-0.31999999999999995,-0.99,-0.671186087309488
-0.30999999999999994,-0.99,-0.6521681805604471
-0.29999999999999993,-0.99,-0.6305764639500342
-0.29000000000000004,-0.99,-0.6064961501193943
-0.28,-0.99,-0.5800222730659677
-0.27,-0.99,-0.5512593130877199
-0.26,-0.99,-0.5203207844471394
-0.25,-0.99,-0.487328787382301
-0.24,-0.99,-0.4524135262330097
-0.22999999999999998,-0.99,-0.41571279558375646
-0.21999999999999997,-0.99,-0.3773714364514448
-0.20999999999999996,-0.99,-0.33754076466406924
-0.19999999999999996,-0.99,-0.2963779736862715
-0.18999999999999995,-0.99,-0.2540455142485504
-0.17999999999999994,-0.99,-0.21071045322844592
-0.16999999999999993,-0.99,-0.16654381431389798
-0.16000000000000003,-0.99,-0.12171990305088429
-0.15000000000000002,-0.99,-0.0764156189390629
-0.14,-0.99,-0.03080975729026458
-0.13,-0.99,0.014917696394919227
-0.12,-0.99,0.06058627674767947
-0.10999999999999999,-0.99,0.10601575074535358
-0.09999999999999998,-0.99,0.15102682900882525
-0.08999999999999997,-0.99,0.19544187337579405
-0.07999999999999996,-0.99,0.23908559795744713
-0.06999999999999995,-0.99,0.2817857609117822
-0.05999999999999994,-0.99,0.32337384420346704
-0.04999999999999993,-0.99,0.3636857186675374
-0.040000000000000036,-0.99,0.402562291752227
-0.030000000000000027,-0.99,0.4398501353845876
-0.020000000000000018,-0.99,0.4754020914809979
-0.010000000000000009,-0.99,0.5090778527128883
0.0,-0.99,0.5407445162356691
0.010000000000000009,-0.99,0.5702771081955385
0.020000000000000018,-0.99,0.597559076944188
0.030000000000000027,-0.99,0.6224827530149131
0.040000000000000036,-0.99,0.6449497740448067
0.050000000000000044,-0.99,0.6648714729660701
0.06000000000000005,-0.99,0.6821692279344194
0.07000000000000006,-0.99,0.6967747726135861
0.08000000000000007,-0.99,0.7086304655913613
0.09000000000000008,-0.99,0.717689517863912
0.10000000000000009,-0.99,0.7239161774906067
0.1100000000000001,-0.99,0.7272858706905883
0.1200000000000001,-0.99,0.7277852988242621
0.13000000000000012,-0.99,0.7254124908769533
0.14000000000000012,-0.99,0.7201768112375954
0.15000000000000013,-0.99,0.7120989227417709
0.15999999999999992,-0.99,0.7012107051249377
0.16999999999999993,-0.99,0.6875551292076741
0.17999999999999994,-0.99,0.6711860873094883
0.18999999999999995,-0.99,0.6521681805604471
0.19999999999999996,-0.99,0.6305764639500341
0.20999999999999996,-0.99,0.6064961501193942
0.21999999999999997,-0.99,0.5800222730659674
0.22999999999999998,-0.99,0.5512593130877199
0.24,-0.99,0.5203207844471395
0.25,-0.99,0.487328787382301
0.26,-0.99,0.45241352623300957
0.27,-0.99,0.4157127955837564
0.28,-0.99,0.3773714364514447
0.29000000000000004,-0.99,0.33754076466406907
0.30000000000000004,-0.99,0.2963779736862714
0.31000000000000005,-0.99,0.2540455142485505
0.32000000000000006,-0.99,0.21071045322844573
0.33000000000000007,-0.99,0.16654381431389786
0.3400000000000001,-0.99,0.12171990305088415
0.3500000000000001,-0.99,0.07641561893906279
0.3600000000000001,-0.99,0.03080975729026448
0.3700000000000001,-0.99,-0.01491769639491932
0.3800000000000001,-0.99,-0.06058627674767954
0.3900000000000001,-0.99,-0.10601575074535369
0.40000000000000013,-0.99,-0.15102682900882525
0.4099999999999999,-0.99,-0.19544187337579405
0.41999999999999993,-0.99,-0.23908559795744722
0.42999999999999994,-0.99,-0.2817857609117821
0.43999999999999995,-0.99,-0.32337384420346693
0.44999999999999996,-0.99,-0.3636857186675373
0.45999999999999996,-0.99,-0.4025622917522268
0.47,-0.99,-0.4398501353845878
0.48,-0.99,-0.47540209148099777
0.49,-0.99,-0.5090778527128883
0.5,-0.99,-0.5407445162356692
0.51,-0.99,-0.5702771081955382
0.52,-0.99,-0.597559076944188
0.53,-0.99,-0.6224827530149128
0.54,-0.99,-0.6449497740448068
0.55,-0.99,-0.6648714729660701
0.56,-0.99,-0.6821692279344187
0.5700000000000001,-0.99,-0.6967747726135863
0.5800000000000001,-0.99,-0.7086304655913616
0.5900000000000001,-0.99,-0.7176895178639124
0.6000000000000001,-0.99,-0.7239161774906069
0.6100000000000001,-0.99,-0.727285870690588
0.6200000000000001,-0.99,-0.7277852988242619
0.6300000000000001,-0.99,-0.7254124908769529
0.6400000000000001,-0.99,-0.7201768112375956
0.6500000000000001,-0.99,-0.7120989227417709
0.6600000000000001,-0.99,-0.7012107051249374
0.6699999999999999,-0.99,-0.687555129207674
0.6799999999999999,-0.99,-0.6711860873094883
0.69,-0.99,-0.6521681805604469
0.7,-0.99,-0.630576463950034
0.71,-0.99,-0.6064961501193944
0.72,-0.99,-0.5800222730659674
0.73,-0.99,-0.5512593130877201
0.74,-0.99,-0.5203207844471393
0.75,-0.99,-0.48732878738230123
0.76,-0.99,-0.45241352623300957
0.77,-0.99,-0.4157127955837564
0.78,-0.99,-0.3773714364514449
0.79,-0.99,-0.33754076466406924
0.8,-0.99,-0.2963779736862713
0.81,-0.99,-0.25404551424855026
0.8200000000000001,-0.99,-0.21071045322844584
0.8300000000000001,-0.99,-0.16654381431389784
0.8400000000000001,-0.99,-0.12171990305088407
0.8500000000000001,-0.99,-0.07641561893906278
0.8600000000000001,-0.99,-0.030809757290264472
0.8700000000000001,-0.99,0.0149176963949193
0.8800000000000001,-0.99,0.06058627674767953
0.8900000000000001,-0.99,0.10601575074535369
0.9000000000000001,-0.99,0.1510268290088253
0.9100000000000001,-0.99,0.19544187337579422
0.9199999999999999,-0.99,0.23908559795744733
0.9299999999999999,-0.99,0.2817857609117823
0.94,-0.99,0.32337384420346704
0.95,-0.99,0.3636857186675372
0.96,-0.99,0.40256229175222685
0.97,-0.99,0.4398501353845878
0.98,-0.99,0.4754020914809978
0.99,-0.99,0.5090778527128884
1.0,-0.99,0.540744516235669

-1.0,-0.98,0.5674590013079511
-0.99,-0.98,0.5975590769441876
-0.98,-0.98,0.6253008599025003
-0.97,-0.98,0.6505748660395669
-0.96,-0.98,0.6732813503997592
-0.95,-0.98,0.6933307008629148
-0.94,-0.98,0.7106437918024311
-0.9299999999999999,-0.98,0.7251522963579693
-0.92,-0.98,0.7367989560903544
-0.91,-0.98,0.7455378069544742
-0.9,-0.98,0.7513343606983709
-0.89,-0.98,0.7541657409726089
-0.88,-0.98,0.754020773612782
-0.87,-0.98,0.7509000307388294
-0.86,-0.98,0.7448158284971427
-0.85,-0.98,0.7357921784543628
-0.84,-0.98,0.7238646928346939
-0.83,-0.98,0.7090804439747289
-0.8200000000000001,-0.98,0.6914977785504355
-0.81,-0.98,0.6711860873094879
-0.8,-0.98,0.6482255312176862
-0.79,-0.98,0.6227067251002428
-0.78,-0.98,0.5947303800264708
-0.77,-0.98,0.5644069058491996
-0.76,-0.98,0.5318559754675303
-0.75,-0.98,0.4972060525325727
-0.74,-0.98,0.4605938844601073
-0.73,-0.98,0.42216396275100765
-0.72,-0.98,0.3820679527492984
-0.71,-0.98,0.3404640950883318
-0.7,-0.98,0.2975165811873014
-0.69,-0.98,0.2533949052627211
-0.6799999999999999,-0.98,0.20827319541218947
-0.6699999999999999,-0.98,0.1623295264103382
-0.6599999999999999,-0.98,0.1157452169290514
-0.6499999999999999,-0.98,0.0687041139555053
-0.64,-0.98,0.021391867232100955
-0.63,-0.98,-0.026004803418254122
-0.62,-0.98,-0.07329884498998174
-0.61,-0.98,-0.1203036095075911
-0.6,-0.98,-0.16683359063996495
-0.59,-0.98,-0.2127051558091006
-0.5800000000000001,-0.98,-0.2577372709039997
-0.5700000000000001,-0.98,-0.30175221473959923
-0.56,-0.98,-0.34457628044109556
-0.55,-0.98,-0.38604046098561917
-0.54,-0.98,-0.4259811161957429
-0.53,-0.98,-0.4642406185525021
-0.52,-0.98,-0.5006679752791992
-0.51,-0.98,-0.5351194242409092
-0.5,-0.98,-0.567459001307951
-0.49,-0.98,-0.5975590769441879
-0.48,-0.98,-0.6253008599025001
-0.47,-0.98,-0.6505748660395664
-0.45999999999999996,-0.98,-0.6732813503997594
-0.44999999999999996,-0.98,-0.6933307008629144
-0.43999999999999995,-0.98,-0.7106437918024313
-0.42999999999999994,-0.98,-0.7251522963579693
-0.42000000000000004,-0.98,-0.7367989560903541
-0.41000000000000003,-0.98,-0.745537806954474
-0.4,-0.98,-0.7513343606983701
-0.39,-0.98,-0.7541657409726086
-0.38,-0.98,-0.7540207736127821
-0.37,-0.98,-0.7509000307388292
-0.36,-0.98,-0.7448158284971429
-0.35,-0.98,-0.7357921784543627
-0.33999999999999997,-0.98,-0.7238646928346941
-0.32999999999999996,-0.98,-0.7090804439747289
-0.31999999999999995,-0.98,-0.6914977785504355
-0.30999999999999994,-0.98,-0.6711860873094879
-0.29999999999999993,-0.98,-0.6482255312176859
-0.29000000000000004,-0.98,-0.6227067251002428
-0.28,-0.98,-0.5947303800264707
-0.27,-0.98,-0.5644069058491998
-0.26,-0.98,-0.5318559754675303
-0.25,-0.98,-0.49720605253257233
-0.24,-0.98,-0.4605938844601072
-0.22999999999999998,-0.98,-0.42216396275100754
-0.21999999999999997,-0.98,-0.38206795274929833
-0.20999999999999996,-0.98,-0.3404640950883319
-0.19999999999999996,-0.98,-0.2975165811873012
-0.18999999999999995,-0.98,-0.2533949052627212
-0.17999999999999994,-0.98,-0.20827319541218958
-0.16999999999999993,-0.98,-0.16232952641033815
-0.16000000000000003,-0.98,-0.11574521692905136
-0.15000000000000002,-0.98,-0.06870411395550534
-0.14,-0.98,-0.0213918672321009
-0.13,-0.98,0.0260048034182541
-0.12,-0.98,0.07329884498998183
-0.10999999999999999,-0.98,0.12030360950759113
-0.09999999999999998,-0.98,0.16683359063996506
-0.08999999999999997,-0.98,0.21270515580910043
-0.07999999999999996,-0.98,0.25773727090399967
-0.06999999999999995,-0.98,0.30175221473959946
-0.05999999999999994,-0.98,0.3445762804410957
-0.04999999999999993,-0.98,0.38604046098561917
-0.040000000000000036,-0.98,0.42598111619574286
-0.030000000000000027,-0.98,0.4642406185525024
-0.020000000000000018,-0.98,0.5006679752791989
-0.010000000000000009,-0.98,0.5351194242409092
0.0,-0.98,0.567459001307951
0.010000000000000009,-0.98,0.5975590769441881
0.020000000000000018,-0.98,0.6253008599025005
0.030000000000000027,-0.98,0.6505748660395667
0.040000000000000036,-0.98,0.6732813503997594
0.050000000000000044,-0.98,0.6933307008629149
0.06000000000000005,-0.98,0.710643791802431
0.07000000000000006,-0.98,0.7251522963579691
0.08000000000000007,-0.98,0.7367989560903536
0.09000000000000008,-0.98,0.7455378069544742
0.10000000000000009,-0.98,0.7513343606983708
0.1100000000000001,-0.98,0.7541657409726088
0.1200000000000001,-0.98,0.7540207736127823
0.13000000000000012,-0.98,0.7509000307388294
0.14000000000000012,-0.98,0.7448158284971426
0.15000000000000013,-0.98,0.735792178454363
0.15999999999999992,-0.98,0.7238646928346941
0.16999999999999993,-0.98,0.7090804439747291
0.17999999999999994,-0.98,0.6914977785504355
0.18999999999999995,-0.98,0.6711860873094879
0.19999999999999996,-0.98,0.6482255312176859
0.20999999999999996,-0.98,0.6227067251002427
0.21999999999999997,-0.98,0.5947303800264709
0.22999999999999998,-0.98,0.5644069058491998
0.24,-0.98,0.5318559754675302
0.25,-0.98,0.49720605253257233
0.26,-0.98,0.4605938844601071
0.27,-0.98,0.4221639627510074
0.28,-0.98,0.3820679527492983
0.29000000000000004,-0.98,0.34046409508833186
0.30000000000000004,-0.98,0.2975165811873013
0.31000000000000005,-0.98,0.25339490526272096
0.32000000000000006,-0.98,0.20827319541218947
0.33000000000000007,-0.98,0.162329526410338
0.3400000000000001,-0.98,0.11574521692905125
0.3500000000000001,-0.98,0.06870411395550521
0.3600000000000001,-0.98,0.021391867232100816
0.3700000000000001,-0.98,-0.026004803418254167
0.3800000000000001,-0.98,-0.07329884498998195
0.3900000000000001,-0.98,-0.12030360950759116
0.40000000000000013,-0.98,-0.16683359063996506
0.4099999999999999,-0.98,-0.2127051558091005
0.41999999999999993,-0.98,-0.25773727090399967
0.42999999999999994,-0.98,-0.30175221473959934
0.43999999999999995,-0.98,-0.3445762804410957
0.44999999999999996,-0.98,-0.38604046098561895
0.45999999999999996,-0.98,-0.42598111619574297
0.47,-0.98,-0.4642406185525023
0.48,-0.98,-0.500667975279199
0.49,-0.98,-0.5351194242409092
0.5,-0.98,-0.5674590013079508
0.51,-0.98,-0.597559076944188
0.52,-0.98,-0.6253008599025003
0.53,-0.98,-0.6505748660395665
0.54,-0.98,-0.6732813503997593
0.55,-0.98,-0.6933307008629144
0.56,-0.98,-0.7106437918024311
0.5700000000000001,-0.98,-0.7251522963579693
0.5800000000000001,-0.98,-0.7367989560903543
0.5900000000000001,-0.98,-0.7455378069544745
0.6000000000000001,-0.98,-0.7513343606983703
0.6100000000000001,-0.98,-0.7541657409726086
0.6200000000000001,-0.98,-0.7540207736127819
0.6300000000000001,-0.98,-0.7509000307388296
0.6400000000000001,-0.98,-0.7448158284971427
0.6500000000000001,-0.98,-0.7357921784543628
0.6600000000000001,-0.98,-0.7238646928346941
0.6699999999999999,-0.98,-0.7090804439747289
0.6799999999999999,-0.98,-0.6914977785504355
0.69,-0.98,-0.6711860873094878
0.7,-0.98,-0.648225531217686
0.71,-0.98,-0.6227067251002427
0.72,-0.98,-0.5947303800264707
0.73,-0.98,-0.5644069058491997
0.74,-0.98,-0.5318559754675305
0.75,-0.98,-0.49720605253257244
0.76,-0.98,-0.460593884460107
0.77,-0.98,-0.42216396275100765
0.78,-0.98,-0.3820679527492984
0.79,-0.98,-0.34046409508833164
0.8,-0.98,-0.29751658118730107
0.81,-0.98,-0.25339490526272107
0.8200000000000001,-0.98,-0.20827319541218947
0.8300000000000001,-0.98,-0.16232952641033788
0.8400000000000001,-0.98,-0.11574521692905124
0.8500000000000001,-0.98,-0.06870411395550521
0.8600000000000001,-0.98,-0.021391867232100827
0.8700000000000001,-0.98,0.02600480341825417
0.8800000000000001,-0.98,0.07329884498998193
0.8900000000000001,-0.98,0.12030360950759118
0.9000000000000001,-0.98,0.16683359063996522
0.9100000000000001,-0.98,0.2127051558091006
0.9199999999999999,-0.98,0.2577372709039999
0.9299999999999999,-0.98,0.30175221473959946
0.94,-0.98,0.34457628044109556
0.95,-0.98,0.38604046098561895
0.96,-0.98,0.4259811161957431
0.97,-0.98,0.4642406185525022
0.98,-0.98,0.500667975279199
0.99,-0.98,0.5351194242409092
1.0,-0.98,0.5674590013079511

-1.0,-0.97,0.5919339849494277
-0.99,-0.97,0.622482753014913
-0.98,-0.97,0.6505748660395669
-0.97,-0.97,0.6760994572873468
-0.96,-0.97,0.6989557928576746
-0.95,-0.97,0.7190536692361205
-0.94,-0.97,0.7363137692864647
-0.9299999999999999,-0.97,0.7506679752791992
-0.92,-0.97,0.7620596377210821
-0.91,-0.97,0.7704437989248125
-0.9,-0.97,0.7757873704364764
-0.89,-0.97,0.7780692636205646
-0.88,-0.97,0.777280472887176
-0.87,-0.97,0.7734241112329716
-0.86,-0.97,0.7665153979555968
-0.85,-0.97,0.7565815985900657
-0.84,-0.97,0.7436619173041541
-0.83,-0.97,0.7278073421774555
-0.8200000000000001,-0.97,0.7090804439747287
-0.81,-0.97,0.6875551292076747
-0.8,-0.97,0.6633163484596967
-0.79,-0.97,0.6364597611247625
-0.78,-0.97,0.6070913578834749
-0.77,-0.97,0.575327042406281
-0.76,-0.97,0.541292173934633
-0.75,-0.97,0.5051210725453366
-0.74,-0.97,0.4669564890505703
-0.73,-0.97,0.42694904162564906
-0.72,-0.97,0.3852566213878945
-0.71,-0.97,0.34204376927253055
-0.7,-0.97,0.29748102666478154
-0.69,-0.97,0.25174426235094016
-0.6799999999999999,-0.97,0.20501397844461344
-0.6699999999999999,-0.97,0.15747459802734304
-0.6599999999999999,-0.97,0.10931373731495916
-0.6499999999999999,-0.97,0.06072146522208942
-0.64,-0.97,0.011889553246986633
-0.63,-0.97,-0.036989281362961604
-0.62,-0.97,-0.08572213617816571
-0.61,-0.97,-0.13411668488459322
-0.6,-0.97,-0.1819819363078664
-0.59,-0.97,-0.22912898816817068
-0.5800000000000001,-0.97,-0.2753717725912525
-0.5700000000000001,-0.97,-0.32052779043331303
-0.56,-0.97,-0.3644188315217516
-0.55,-0.97,-0.4068716779693013
-0.54,-0.97,-0.4477187877858942
-0.53,-0.97,-0.4867989560903543
-0.52,-0.97,-0.5239579513124137
-0.51,-0.97,-0.5590491238742616
-0.5,-0.97,-0.591933984949428
-0.49,-0.97,-0.6224827530149126
-0.48,-0.97,-0.6505748660395663
-0.47,-0.97,-0.6760994572873469
-0.45999999999999996,-0.97,-0.6989557928576744
-0.44999999999999996,-0.97,-0.7190536692361206
-0.43999999999999995,-0.97,-0.7363137692864649
-0.42999999999999994,-0.97,-0.7506679752791988
-0.42000000000000004,-0.97,-0.762059637721082
-0.41000000000000003,-0.97,-0.7704437989248116
-0.4,-0.97,-0.7757873704364762
-0.39,-0.97,-0.7780692636205645
-0.38,-0.97,-0.7772804728871758
-0.37,-0.97,-0.7734241112329718
-0.36,-0.97,-0.7665153979555968
-0.35,-0.97,-0.7565815985900659
-0.33999999999999997,-0.97,-0.7436619173041542
-0.32999999999999996,-0.97,-0.7278073421774556
-0.31999999999999995,-0.97,-0.7090804439747287
-0.30999999999999994,-0.97,-0.6875551292076743
-0.29999999999999993,-0.97,-0.6633163484596967
-0.29000000000000004,-0.97,-0.6364597611247623
-0.28,-0.97,-0.607091357883475
-0.27,-0.97,-0.5753270424062812
-0.26,-0.97,-0.5412921739346328
-0.25,-0.97,-0.5051210725453363
-0.24,-0.97,-0.4669564890505703
-0.22999999999999998,-0.97,-0.42694904162564895
-0.21999999999999997,-0.97,-0.3852566213878946
-0.20999999999999996,-0.97,-0.34204376927253033
-0.19999999999999996,-0.97,-0.2974810266647816
-0.18999999999999995,-0.97,-0.2517442623509404
-0.17999999999999994,-0.97,-0.20501397844461344
-0.16999999999999993,-0.97,-0.15747459802734304
-0.16000000000000003,-0.97,-0.10931373731495922
-0.15000000000000002,-0.97,-0.060721465222089356
-0.14,-0.97,-0.011889553246986649
-0.13,-0.97,0.0369892813629617
-0.12,-0.97,0.08572213617816575
-0.10999999999999999,-0.97,0.13411668488459333
-0.09999999999999998,-0.97,0.1819819363078663
-0.08999999999999997,-0.97,0.22912898816817068
-0.07999999999999996,-0.97,0.27537177259125273
-0.06999999999999995,-0.97,0.32052779043331325
-0.05999999999999994,-0.97,0.3644188315217516
-0.04999999999999993,-0.97,0.4068716779693012
-0.040000000000000036,-0.97,0.44771878778589447
-0.030000000000000027,-0.97,0.48679895609035423
-0.020000000000000018,-0.97,0.5239579513124138
-0.010000000000000009,-0.97,0.5590491238742616
0.0,-0.97,0.5919339849494281
0.010000000000000009,-0.97,0.6224827530149131
0.020000000000000018,-0.97,0.6505748660395667
0.030000000000000027,-0.97,0.6760994572873469
0.040000000000000036,-0.97,0.698955792857675
0.050000000000000044,-0.97,0.7190536692361205
0.06000000000000005,-0.97,0.7363137692864644
0.07000000000000006,-0.97,0.7506679752791985
0.08000000000000007,-0.97,0.7620596377210822
0.09000000000000008,-0.97,0.7704437989248123
0.10000000000000009,-0.97,0.7757873704364766
0.1100000000000001,-0.97,0.7780692636205647
0.1200000000000001,-0.97,0.777280472887176
0.13000000000000012,-0.97,0.7734241112329716
0.14000000000000012,-0.97,0.766515397955597
0.15000000000000013,-0.97,0.7565815985900659
0.15999999999999992,-0.97,0.7436619173041544
0.16999999999999993,-0.97,0.7278073421774556
0.17999999999999994,-0.97,0.7090804439747287
0.18999999999999995,-0.97,0.6875551292076743
0.19999999999999996,-0.97,0.6633163484596964
0.20999999999999996,-0.97,0.6364597611247627
0.21999999999999997,-0.97,0.6070913578834751
0.22999999999999998,-0.97,0.5753270424062809
0.24,-0.97,0.5412921739346328
0.25,-0.97,0.5051210725453363
0.26,-0.97,0.4669564890505701
0.27,-0.97,0.426949041625649
0.28,-0.97,0.38525662138789474
0.29000000000000004,-0.97,0.34204376927253044
0.30000000000000004,-0.97,0.2974810266647814
0.31000000000000005,-0.97,0.2517442623509403
0.32000000000000006,-0.97,0.20501397844461322
0.33000000000000007,-0.97,0.15747459802734287
0.3400000000000001,-0.97,0.10931373731495907
0.3500000000000001,-0.97,0.06072146522208928
0.3600000000000001,-0.97,0.011889553246986567
0.3700000000000001,-0.97,-0.036989281362961826
0.3800000000000001,-0.97,-0.08572213617816579
0.3900000000000001,-0.97,-0.1341166848845933
0.40000000000000013,-0.97,-0.18198193630786635
0.4099999999999999,-0.97,-0.22912898816817068
0.41999999999999993,-0.97,-0.2753717725912526
0.42999999999999994,-0.97,-0.32052779043331314
0.43999999999999995,-0.97,-0.36441883152175136
0.44999999999999996,-0.97,-0.40687167796930135
0.45999999999999996,-0.97,-0.44771878778589447
0.47,-0.97,-0.4867989560903543
0.48,-0.97,-0.5239579513124136
0.49,-0.97,-0.5590491238742614
0.5,-0.97,-0.591933984949428
0.51,-0.97,-0.622482753014913
0.52,-0.97,-0.6505748660395665
0.53,-0.97,-0.6760994572873467
0.54,-0.97,-0.6989557928576744
0.55,-0.97,-0.7190536692361202
0.56,-0.97,-0.7363137692864647
0.5700000000000001,-0.97,-0.7506679752791989
0.5800000000000001,-0.97,-0.7620596377210824
0.5900000000000001,-0.97,-0.770443798924812
0.6000000000000001,-0.97,-0.7757873704364763
0.6100000000000001,-0.97,-0.7780692636205642
0.6200000000000001,-0.97,-0.7772804728871762
0.6300000000000001,-0.97,-0.7734241112329717
0.6400000000000001,-0.97,-0.766515397955597
0.6500000000000001,-0.97,-0.7565815985900659
0.6600000000000001,-0.97,-0.7436619173041541
0.6699999999999999,-0.97,-0.7278073421774556