TITLE = "Solution" 
VARIABLES = "x", "y", "sol" 
ZONE STRANDID=1, SOLUTIONTIME= 1.2999999999999943, I= 201, J =201, DATAPACKING=POINT 
-1.0,-1.0,0.7036900618561006
-0.99,-1.0,0.7207551609432886
-0.98,-1.0,0.7349757686919447
-0.97,-1.0,0.746295762860063
-0.96,-1.0,0.7546704686022745
-0.95,-1.0,0.7600668347810545
-0.94,-1.0,0.7624635644044601
-0.9299999999999999,-1.0,0.7618511986756298
-0.92,-1.0,0.7582321543223318
-0.91,-1.0,0.7516207140592446
-0.9,-1.0,0.7420429702206068
-0.89,-1.0,0.7295367217856938
-0.88,-1.0,0.7141513252035179
-0.87,-1.0,0.6959474996054695
-0.86,-1.0,0.6749970871746477
-0.85,-1.0,0.6513827696175825
-0.84,-1.0,0.6251977418573174
-0.83,-1.0,0.5965453442356206
-0.8200000000000001,-1.0,0.5655386546758694
-0.81,-1.0,0.5323000424161475
-0.8,-1.0,0.4969606850737667
-0.79,-1.0,0.45966005094714013
-0.78,-1.0,0.4205453485981271
-0.77,-1.0,0.3797709458870909
-0.76,-1.0,0.3374977607534808
-0.75,-1.0,0.29389262614623635
-0.74,-1.0,0.24912763161036228
-0.73,-1.0,0.20337944412811065
-0.72,-1.0,0.15682861089511493
-0.71,-1.0,0.10965884678309326
-0.7,-1.0,0.06205630930118049
-0.69,-1.0,0.014208863917286919
-0.6799999999999999,-1.0,-0.03369465736107578
-0.6699999999999999,-1.0,-0.08146520122045903
-0.6599999999999999,-1.0,-0.12891423914853528
-0.6499999999999999,-1.0,-0.17585451147000608
-0.64,-1.0,-0.22210076637498877
-0.63,-1.0,-0.26747049102327786
-0.62,-1.0,-0.3117846318391419
-0.61,-1.0,-0.3548683011539859
-0.6,-1.0,-0.39655146740808056
-0.59,-1.0,-0.4366696261874481
-0.5800000000000001,-1.0,-0.47506444944762904
-0.5700000000000001,-1.0,-0.5115844103621432
-0.56,-1.0,-0.5460853813296431
-0.55,-1.0,-0.5784312027797143
-0.54,-1.0,-0.6084942205324939
-0.53,-1.0,-0.6361557895913974
-0.52,-1.0,-0.6613067423807188
-0.51,-1.0,-0.6838478195801757
-0.5,-1.0,-0.703690061856101
-0.49,-1.0,-0.7207551609432886
-0.48,-1.0,-0.7349757686919446
-0.47,-1.0,-0.7462957628600628
-0.45999999999999996,-1.0,-0.754670468602274
-0.44999999999999996,-1.0,-0.7600668347810542
-0.43999999999999995,-1.0,-0.7624635644044605
-0.42999999999999994,-1.0,-0.7618511986756298
-0.42000000000000004,-1.0,-0.7582321543223318
-0.41000000000000003,-1.0,-0.7516207140592446
-0.4,-1.0,-0.7420429702206064
-0.39,-1.0,-0.7295367217856943
-0.38,-1.0,-0.7141513252035183
-0.37,-1.0,-0.6959474996054698
-0.36,-1.0,-0.6749970871746473
-0.35,-1.0,-0.6513827696175822
-0.33999999999999997,-1.0,-0.6251977418573171
-0.32999999999999996,-1.0,-0.5965453442356206
-0.31999999999999995,-1.0,-0.5655386546758694
-0.30999999999999994,-1.0,-0.5323000424161476
-0.29999999999999993,-1.0,-0.49696068507376695
-0.29000000000000004,-1.0,-0.45966005094714035
-0.28,-1.0,-0.4205453485981272
-0.27,-1.0,-0.3797709458870915
-0.26,-1.0,-0.33749776075348104
-0.25,-1.0,-0.29389262614623657
-0.24,-1.0,-0.24912763161036233
-0.22999999999999998,-1.0,-0.20337944412811054
-0.21999999999999997,-1.0,-0.15682861089511507
-0.20999999999999996,-1.0,-0.10965884678309339
-0.19999999999999996,-1.0,-0.06205630930118071
-0.18999999999999995,-1.0,-0.014208863917287044
-0.17999999999999994,-1.0,0.033694657361075575
-0.16999999999999993,-1.0,0.08146520122045885
-0.16000000000000003,-1.0,0.12891423914853514
-0.15000000000000002,-1.0,0.1758545114700059
-0.14,-1.0,0.2221007663749886
-0.13,-1.0,0.2674704910232776
-0.12,-1.0,0.31178463183914173
-0.10999999999999999,-1.0,0.3548683011539857
-0.09999999999999998,-1.0,0.3965514674080804
-0.08999999999999997,-1.0,0.43666962618744776
-0.07999999999999996,-1.0,0.4750644494476297
-0.06999999999999995,-1.0,0.5115844103621434
-0.05999999999999994,-1.0,0.5460853813296431
-0.04999999999999993,-1.0,0.5784312027797143
-0.040000000000000036,-1.0,0.6084942205324938
-0.030000000000000027,-1.0,0.6361557895913972
-0.020000000000000018,-1.0,0.6613067423807188
-0.010000000000000009,-1.0,0.683847819580176
0.0,-1.0,0.7036900618561004
0.010000000000000009,-1.0,0.7207551609432887
0.020000000000000018,-1.0,0.7349757686919449
0.030000000000000027,-1.0,0.7462957628600624
0.040000000000000036,-1.0,0.7546704686022743
0.050000000000000044,-1.0,0.7600668347810545
0.06000000000000005,-1.0,0.7624635644044602
0.07000000000000006,-1.0,0.7618511986756303
0.08000000000000007,-1.0,0.7582321543223318
0.09000000000000008,-1.0,0.7516207140592446
0.10000000000000009,-1.0,0.7420429702206063
0.1100000000000001,-1.0,0.729536721785694
0.1200000000000001,-1.0,0.7141513252035181
0.13000000000000012,-1.0,0.6959474996054694
0.14000000000000012,-1.0,0.6749970871746472
0.15000000000000013,-1.0,0.6513827696175827
0.15999999999999992,-1.0,0.6251977418573175
0.16999999999999993,-1.0,0.5965453442356206
0.17999999999999994,-1.0,0.5655386546758698
0.18999999999999995,-1.0,0.5323000424161475
0.19999999999999996,-1.0,0.49696068507376673
0.20999999999999996,-1.0,0.4596600509471402
0.21999999999999997,-1.0,0.42054534859812726
0.22999999999999998,-1.0,0.37977094588709137
0.24,-1.0,0.3374977607534806
0.25,-1.0,0.29389262614623657
0.26,-1.0,0.24912763161036233
0.27,-1.0,0.2033794441281107
0.28,-1.0,0.15682861089511502
0.29000000000000004,-1.0,0.1096588467830934
0.30000000000000004,-1.0,0.06205630930118064
0.31000000000000005,-1.0,0.014208863917286957
0.32000000000000006,-1.0,-0.0336946573610757
0.33000000000000007,-1.0,-0.08146520122045889
0.3400000000000001,-1.0,-0.12891423914853523
0.3500000000000001,-1.0,-0.17585451147000583
0.3600000000000001,-1.0,-0.22210076637498846
0.3700000000000001,-1.0,-0.2674704910232776
0.3800000000000001,-1.0,-0.3117846318391417
0.3900000000000001,-1.0,-0.3548683011539856
0.40000000000000013,-1.0,-0.39655146740808056
0.4099999999999999,-1.0,-0.4366696261874481
0.41999999999999993,-1.0,-0.47506444944762927
0.42999999999999994,-1.0,-0.5115844103621434
0.43999999999999995,-1.0,-0.5460853813296429
0.44999999999999996,-1.0,-0.5784312027797145
0.45999999999999996,-1.0,-0.6084942205324936
0.47,-1.0,-0.636155789591397
0.48,-1.0,-0.6613067423807188
0.49,-1.0,-0.6838478195801753
0.5,-1.0,-0.7036900618561013
0.51,-1.0,-0.7207551609432887
0.52,-1.0,-0.7349757686919449
0.53,-1.0,-0.7462957628600624
0.54,-1.0,-0.7546704686022745
0.55,-1.0,-0.7600668347810543
0.56,-1.0,-0.7624635644044602
0.5700000000000001,-1.0,-0.7618511986756302
0.5800000000000001,-1.0,-0.7582321543223315
0.5900000000000001,-1.0,-0.7516207140592446
0.6000000000000001,-1.0,-0.7420429702206062
0.6100000000000001,-1.0,-0.7295367217856941
0.6200000000000001,-1.0,-0.7141513252035181
0.6300000000000001,-1.0,-0.6959474996054696
0.6400000000000001,-1.0,-0.6749970871746475
0.6500000000000001,-1.0,-0.6513827696175828
0.6600000000000001,-1.0,-0.6251977418573178
0.6699999999999999,-1.0,-0.5965453442356203
0.6799999999999999,-1.0,-0.5655386546758698
0.69,-1.0,-0.5323000424161479
0.7,-1.0,-0.4969606850737667
0.71,-1.0,-0.4596600509471404
0.72,-1.0,-0.42054534859812714
0.73,-1.0,-0.37977094588709137
0.74,-1.0,-0.33749776075348076
0.75,-1.0,-0.2938926261462364
0.76,-1.0,-0.24912763161036222
0.77,-1.0,-0.20337944412811054
0.78,-1.0,-0.156828610895115
0.79,-1.0,-0.10965884678309336
0.8,-1.0,-0.06205630930118053
0.81,-1.0,-0.014208863917286981
0.8200000000000001,-1.0,0.03369465736107577
0.8300000000000001,-1.0,0.08146520122045896
0.8400000000000001,-1.0,0.12891423914853534
0.8500000000000001,-1.0,0.17585451147000591
0.8600000000000001,-1.0,0.2221007663749887
0.8700000000000001,-1.0,0.2674704910232776
0.8800000000000001,-1.0,0.3117846318391416
0.8900000000000001,-1.0,0.3548683011539858
0.9000000000000001,-1.0,0.39655146740808067
0.9100000000000001,-1.0,0.43666962618744787
0.9199999999999999,-1.0,0.47506444944762916
0.9299999999999999,-1.0,0.5115844103621434
0.94,-1.0,0.5460853813296429
0.95,-1.0,0.5784312027797144
0.96,-1.0,0.6084942205324937
0.97,-1.0,0.6361557895913972
0.98,-1.0,0.6613067423807188
0.99,-1.0,0.6838478195801759
1.0,-1.0,0.7036900618561006

-1.0,-0.99,0.7207551609432886
-0.99,-0.99,0.7373349046905586
-0.98,-0.99,0.7510047244252912
-0.97,-0.99,0.7617106716141387
-0.96,-0.99,0.7694104947746299
-0.95,-0.99,0.774073806222464
-0.94,-0.99,0.7756822019978218
-0.9299999999999999,-0.99,0.7742293344973834
-0.92,-0.99,0.7697209375254214
-0.91,-0.99,0.7621748036650933
-0.9,-0.99,0.7516207140592444
-0.89,-0.99,0.738100320877845
-0.88,-0.99,0.7216669829359024
-0.87,-0.99,0.7023855551105951
-0.86,-0.99,0.6803321323887022
-0.85,-0.99,0.6555937495544574
-0.84,-0.99,0.6282680377030154
-0.83,-0.99,0.5984628389351232
-0.8200000000000001,-0.99,0.5662957807536182
-0.81,-0.99,0.5318938118414116
-0.8,-0.99,0.4953927010530349
-0.79,-0.99,0.4569365015969989
-0.78,-0.99,0.4166769825235895
-0.77,-0.99,0.37477302976176613
-0.76,-0.99,0.33139001906898335
-0.75,-0.99,0.2866991633686342
-0.74,-0.99,0.24087683705085772
-0.73,-0.99,0.1941038799034003
-0.72,-0.99,0.14656488341959178
-0.71,-0.99,0.09844746230005226
-0.7,-0.99,0.04994151402318173
-0.69,-0.99,0.001238469406569109
-0.6799999999999999,-0.99,-0.04746946288298839
-0.6699999999999999,-0.99,-0.09599005488928143
-0.6599999999999999,-0.99,-0.14413181800261127
-0.6499999999999999,-0.99,-0.1917047586778487
-0.64,-0.99,-0.2385211282521582
-0.63,-0.99,-0.28439616390319444
-0.62,-0.99,-0.3291488178235531
-0.61,-0.99,-0.3726024717337533
-0.6,-0.99,-0.4145856339138976
-0.59,-0.99,-0.4549326160031427
-0.5800000000000001,-0.99,-0.4934841868959665
-0.5700000000000001,-0.99,-0.5300882011545914
-0.56,-0.99,-0.5646001994575225
-0.55,-0.99,-0.5968839787144897
-0.54,-0.99,-0.626812129597822
-0.53,-0.99,-0.6542665393688547
-0.52,-0.99,-0.6791388580149477
-0.51,-0.99,-0.7013309258574868
-0.5,-0.99,-0.7207551609432887
-0.49,-0.99,-0.7373349046905586
-0.48,-0.99,-0.751004724425291
-0.47,-0.99,-0.7617106716141384
-0.45999999999999996,-0.99,-0.7694104947746296
-0.44999999999999996,-0.99,-0.7740738062224645
-0.43999999999999995,-0.99,-0.7756822019978218
-0.42999999999999994,-0.99,-0.7742293344973834
-0.42000000000000004,-0.99,-0.7697209375254214
-0.41000000000000003,-0.99,-0.7621748036650928
-0.4,-0.99,-0.7516207140592448
-0.39,-0.99,-0.7381003208778456
-0.38,-0.99,-0.7216669829359025
-0.37,-0.99,-0.7023855551105949
-0.36,-0.99,-0.6803321323887018
-0.35,-0.99,-0.655593749554457
-0.33999999999999997,-0.99,-0.6282680377030152
-0.32999999999999996,-0.99,-0.5984628389351232
-0.31999999999999995,-0.99,-0.5662957807536181
-0.30999999999999994,-0.99,-0.5318938118414118
-0.29999999999999993,-0.99,-0.4953927010530352
-0.29000000000000004,-0.99,-0.4569365015969989
-0.28,-0.99,-0.41667698252359
-0.27,-0.99,-0.3747730297617664
-0.26,-0.99,-0.3313900190689836
-0.25,-0.99,-0.28669916336863427
-0.24,-0.99,-0.24087683705085755
-0.22999999999999998,-0.99,-0.19410387990340044
-0.21999999999999997,-0.99,-0.1465648834195919
-0.20999999999999996,-0.99,-0.09844746230005245
-0.19999999999999996,-0.99,-0.04994151402318186
-0.18999999999999995,-0.99,-0.0012384694065693275
-0.17999999999999994,-0.99,0.04746946288298822
-0.16999999999999993,-0.99,0.09599005488928126
-0.16000000000000003,-0.99,0.14413181800261107
-0.15000000000000002,-0.99,0.19170475867784856
-0.14,-0.99,0.23852112825215793
-0.13,-0.99,0.2843961639031942
-0.12,-0.99,0.3291488178235528
-0.10999999999999999,-0.99,0.37260247173375305
-0.09999999999999998,-0.99,0.4145856339138972
-0.08999999999999997,-0.99,0.4549326160031433
-0.07999999999999996,-0.99,0.49348418689596674
-0.06999999999999995,-0.99,0.5300882011545913
-0.05999999999999994,-0.99,0.5646001994575222
-0.04999999999999993,-0.99,0.5968839787144897
-0.040000000000000036,-0.99,0.6268121295978217
-0.030000000000000027,-0.99,0.6542665393688546
-0.020000000000000018,-0.99,0.6791388580149479
-0.010000000000000009,-0.99,0.7013309258574864
0.0,-0.99,0.7207551609432888
0.010000000000000009,-0.99,0.7373349046905588
0.020000000000000018,-0.99,0.7510047244252906
0.030000000000000027,-0.99,0.7617106716141386
0.040000000000000036,-0.99,0.7694104947746299
0.050000000000000044,-0.99,0.7740738062224642
0.06000000000000005,-0.99,0.7756822019978223
0.07000000000000006,-0.99,0.7742293344973835
0.08000000000000007,-0.99,0.7697209375254214
0.09000000000000008,-0.99,0.7621748036650926
0.10000000000000009,-0.99,0.7516207140592446
0.1100000000000001,-0.99,0.7381003208778454
0.1200000000000001,-0.99,0.7216669829359021
0.13000000000000012,-0.99,0.7023855551105949
0.14000000000000012,-0.99,0.6803321323887024
0.15000000000000013,-0.99,0.6555937495544575
0.15999999999999992,-0.99,0.6282680377030153
0.16999999999999993,-0.99,0.5984628389351236
0.17999999999999994,-0.99,0.566295780753618
0.18999999999999995,-0.99,0.5318938118414116
0.19999999999999996,-0.99,0.49539270105303496
0.20999999999999996,-0.99,0.45693650159699895
0.21999999999999997,-0.99,0.41667698252358987
0.22999999999999998,-0.99,0.37477302976176596
0.24,-0.99,0.3313900190689835
0.25,-0.99,0.2866991633686342
0.26,-0.99,0.24087683705085772
0.27,-0.99,0.1941038799034004
0.28,-0.99,0.14656488341959195
0.29000000000000004,-0.99,0.09844746230005243
0.30000000000000004,-0.99,0.049941514023181775
0.31000000000000005,-0.99,0.0012384694065691905
0.32000000000000006,-0.99,-0.04746946288298825
0.33000000000000007,-0.99,-0.0959900548892814
0.3400000000000001,-0.99,-0.14413181800261102
0.3500000000000001,-0.99,-0.19170475867784847
0.3600000000000001,-0.99,-0.23852112825215793
0.3700000000000001,-0.99,-0.28439616390319417
0.3800000000000001,-0.99,-0.3291488178235527
0.3900000000000001,-0.99,-0.37260247173375327
0.40000000000000013,-0.99,-0.41458563391389763
0.4099999999999999,-0.99,-0.4549326160031429
0.41999999999999993,-0.99,-0.49348418689596674
0.42999999999999994,-0.99,-0.5300882011545913
0.43999999999999995,-0.99,-0.5646001994575224
0.44999999999999996,-0.99,-0.5968839787144895
0.45999999999999996,-0.99,-0.6268121295978215
0.47,-0.99,-0.6542665393688546
0.48,-0.99,-0.6791388580149471
0.49,-0.99,-0.7013309258574872
0.5,-0.99,-0.720755160943289
0.51,-0.99,-0.7373349046905591
0.52,-0.99,-0.7510047244252905
0.53,-0.99,-0.7617106716141389
0.54,-0.99,-0.7694104947746296
0.55,-0.99,-0.7740738062224642
0.56,-0.99,-0.7756822019978222
0.5700000000000001,-0.99,-0.7742293344973832
0.5800000000000001,-0.99,-0.7697209375254213
0.5900000000000001,-0.99,-0.7621748036650926
0.6000000000000001,-0.99,-0.7516207140592446
0.6100000000000001,-0.99,-0.7381003208778455
0.6200000000000001,-0.99,-0.7216669829359026
0.6300000000000001,-0.99,-0.7023855551105949
0.6400000000000001,-0.99,-0.6803321323887026
0.6500000000000001,-0.99,-0.6555937495544577
0.6600000000000001,-0.99,-0.6282680377030151
0.6699999999999999,-0.99,-0.5984628389351236
0.6799999999999999,-0.99,-0.5662957807536184
0.69,-0.99,-0.5318938118414116
0.7,-0.99,-0.4953927010530351
0.71,-0.99,-0.45693650159699883
0.72,-0.99,-0.4166769825235898
0.73,-0.99,-0.3747730297617661
0.74,-0.99,-0.3313900190689834
0.75,-0.99,-0.2866991633686341
0.76,-0.99,-0.24087683705085755
0.77,-0.99,-0.19410387990340033
0.78,-0.99,-0.1465648834195919
0.79,-0.99,-0.0984474623000523
0.8,-0.99,-0.049941514023181796
0.81,-0.99,-0.001238469406569128
0.8200000000000001,-0.99,0.04746946288298833
0.8300000000000001,-0.99,0.09599005488928145
0.8400000000000001,-0.99,0.1441318180026111
0.8500000000000001,-0.99,0.1917047586778487
0.8600000000000001,-0.99,0.238521128252158
0.8700000000000001,-0.99,0.2843961639031942
0.8800000000000001,-0.99,0.329148817823553
0.8900000000000001,-0.99,0.3726024717337533
0.9000000000000001,-0.99,0.41458563391389736
0.9100000000000001,-0.99,0.4549326160031427
0.9199999999999999,-0.99,0.49348418689596674
0.9299999999999999,-0.99,0.5300882011545913
0.94,-0.99,0.5646001994575223
0.95,-0.99,0.5968839787144897
0.96,-0.99,0.6268121295978218
0.97,-0.99,0.6542665393688547
0.98,-0.99,0.6791388580149478
0.99,-0.99,0.7013309258574866
1.0,-0.99,0.7207551609432886

-1.0,-0.98,0.7349757686919446
-0.99,-0.98,0.7510047244252911
-0.98,-0.98,0.7640698076127528
-0.97,-0.98,0.7741194563398581
-0.96,-0.98,0.7811140092343283
-0.95,-0.98,0.7850258619913973
-0.94,-0.98,0.7858395763153876
-0.9299999999999999,-0.98,0.7835519408476134
-0.92,-0.98,0.7781719838401449
-0.91,-0.98,0.7697209375254211
-0.9,-0.98,0.7582321543223314
-0.89,-0.98,0.7437509752094531
-0.88,-0.98,0.7263345507849223
-0.87,-0.98,0.706051615719135
-0.86,-0.98,0.6829822174904048
-0.85,-0.98,0.657217400474135
-0.84,-0.98,0.6288588466322632
-0.83,-0.98,0.598018474221013
-0.8200000000000001,-0.98,0.5648179961006654
-0.81,-0.98,0.5293884393905056
-0.8,-0.98,0.49186962836464376
-0.79,-0.98,0.4524096326294843
-0.78,-0.98,0.4111641827606379
-0.77,-0.98,0.3682960557054819
-0.76,-0.98,0.3239744323769196
-0.75,-0.98,0.27837422997360467
-0.74,-0.98,0.23167541166167227
-0.73,-0.98,0.18406227634233882
-0.72,-0.98,0.13572273130833762
-0.71,-0.98,0.08684755065968024
-0.7,-0.98,0.037629622405440884
-0.69,-0.98,-0.011736812777093578
-0.6799999999999999,-0.98,-0.06105692812163654
-0.6699999999999999,-0.98,-0.11013607966514061
-0.6599999999999999,-0.98,-0.15878057441859486
-0.6499999999999999,-0.98,-0.2067984347847634
-0.64,-0.98,-0.2540001562060544
-0.63,-0.98,-0.3001994550524335
-0.62,-0.98,-0.34521400379780587
-0.61,-0.98,-0.38886615058346474
-0.6,-0.98,-0.43098362032881554
-0.59,-0.98,-0.4714001946224161
-0.5800000000000001,-0.98,-0.509956367710105
-0.5700000000000001,-0.98,-0.5464999759913456
-0.56,-0.98,-0.5808867985394381
-0.55,-0.98,-0.6129811262756298
-0.54,-0.98,-0.6426562975508507
-0.53,-0.98,-0.6697951980213723
-0.52,-0.98,-0.6942907228456224
-0.51,-0.98,-0.7160461993780605
-0.5,-0.98,-0.7349757686919447
-0.49,-0.98,-0.7510047244252909
-0.48,-0.98,-0.7640698076127526
-0.47,-0.98,-0.7741194563398579
-0.45999999999999996,-0.98,-0.7811140092343287
-0.44999999999999996,-0.98,-0.7850258619913975
-0.43999999999999995,-0.98,-0.7858395763153874
-0.42999999999999994,-0.98,-0.7835519408476133
-0.42000000000000004,-0.98,-0.7781719838401444
-0.41000000000000003,-0.98,-0.7697209375254216
-0.4,-0.98,-0.758232154322332
-0.39,-0.98,-0.7437509752094529
-0.38,-0.98,-0.726334550784922
-0.37,-0.98,-0.7060516157191348
-0.36,-0.98,-0.6829822174904046
-0.35,-0.98,-0.6572174004741348
-0.33999999999999997,-0.98,-0.6288588466322633
-0.32999999999999996,-0.98,-0.5980184742210128
-0.31999999999999995,-0.98,-0.5648179961006659
-0.30999999999999994,-0.98,-0.5293884393905057
-0.29999999999999993,-0.98,-0.4918696283646437
-0.29000000000000004,-0.98,-0.4524096326294848
-0.28,-0.98,-0.41116418276063815
-0.27,-0.98,-0.368296055705482
-0.26,-0.98,-0.3239744323769196
-0.25,-0.98,-0.27837422997360456
-0.24,-0.98,-0.23167541166167227
-0.22999999999999998,-0.98,-0.1840622763423389
-0.21999999999999997,-0.98,-0.13572273130833779
-0.20999999999999996,-0.98,-0.08684755065968039
-0.19999999999999996,-0.98,-0.037629622405441106
-0.18999999999999995,-0.98,0.011736812777093404
-0.17999999999999994,-0.98,0.06105692812163635
-0.16999999999999993,-0.98,0.11013607966514044
-0.16000000000000003,-0.98,0.15878057441859467
-0.15000000000000002,-0.98,0.20679843478476312
-0.14,-0.98,0.2540001562060542
-0.13,-0.98,0.3001994550524332
-0.12,-0.98,0.34521400379780565
-0.10999999999999999,-0.98,0.3888661505834643
-0.09999999999999998,-0.98,0.43098362032881593
-0.08999999999999997,-0.98,0.4714001946224161
-0.07999999999999996,-0.98,0.5099563677101049
-0.06999999999999995,-0.98,0.5464999759913454
-0.05999999999999994,-0.98,0.5808867985394381
-0.04999999999999993,-0.98,0.6129811262756296
-0.040000000000000036,-0.98,0.6426562975508505
-0.030000000000000027,-0.98,0.6697951980213724
-0.020000000000000018,-0.98,0.6942907228456221
-0.010000000000000009,-0.98,0.7160461993780606
0.0,-0.98,0.7349757686919448
0.010000000000000009,-0.98,0.7510047244252906
0.020000000000000018,-0.98,0.7640698076127528
0.030000000000000027,-0.98,0.7741194563398579
0.040000000000000036,-0.98,0.7811140092343285
0.050000000000000044,-0.98,0.7850258619913975
0.06000000000000005,-0.98,0.7858395763153876
0.07000000000000006,-0.98,0.7835519408476134
0.08000000000000007,-0.98,0.7781719838401442
0.09000000000000008,-0.98,0.7697209375254213
0.10000000000000009,-0.98,0.7582321543223316
0.1100000000000001,-0.98,0.7437509752094529
0.1200000000000001,-0.98,0.726334550784922
0.13000000000000012,-0.98,0.7060516157191352
0.14000000000000012,-0.98,0.682982217490405
0.15000000000000013,-0.98,0.6572174004741349
0.15999999999999992,-0.98,0.6288588466322638
0.16999999999999993,-0.98,0.5980184742210127
0.17999999999999994,-0.98,0.5648179961006654
0.18999999999999995,-0.98,0.5293884393905055
0.19999999999999996,-0.98,0.49186962836464376
0.20999999999999996,-0.98,0.4524096326294847
0.21999999999999997,-0.98,0.4111641827606377
0.22999999999999998,-0.98,0.368296055705482
0.24,-0.98,0.32397443237691953
0.25,-0.98,0.2783742299736047
0.26,-0.98,0.23167541166167227
0.27,-0.98,0.18406227634233896
0.28,-0.98,0.13572273130833776
0.29000000000000004,-0.98,0.08684755065968028
0.30000000000000004,-0.98,0.03762962240544096
0.31000000000000005,-0.98,-0.011736812777093427
0.32000000000000006,-0.98,-0.06105692812163651
0.33000000000000007,-0.98,-0.11013607966514039
0.3400000000000001,-0.98,-0.1587805744185947
0.3500000000000001,-0.98,-0.20679843478476312
0.3600000000000001,-0.98,-0.2540001562060541
0.3700000000000001,-0.98,-0.30019945505243306
0.3800000000000001,-0.98,-0.3452140037978058
0.3900000000000001,-0.98,-0.38886615058346474
0.40000000000000013,-0.98,-0.4309836203288156
0.4099999999999999,-0.98,-0.4714001946224161
0.41999999999999993,-0.98,-0.5099563677101051
0.42999999999999994,-0.98,-0.5464999759913455
0.43999999999999995,-0.98,-0.5808867985394378
0.44999999999999996,-0.98,-0.6129811262756295
0.45999999999999996,-0.98,-0.6426562975508505
0.47,-0.98,-0.6697951980213717
0.48,-0.98,-0.694290722845623
0.49,-0.98,-0.7160461993780607
0.5,-0.98,-0.7349757686919449
0.51,-0.98,-0.7510047244252905
0.52,-0.98,-0.7640698076127528
0.53,-0.98,-0.7741194563398578
0.54,-0.98,-0.7811140092343285
0.55,-0.98,-0.7850258619913977
0.56,-0.98,-0.7858395763153871
0.5700000000000001,-0.98,-0.7835519408476133
0.5800000000000001,-0.98,-0.7781719838401442
0.5900000000000001,-0.98,-0.7697209375254213
0.6000000000000001,-0.98,-0.7582321543223318
0.6100000000000001,-0.98,-0.7437509752094531
0.6200000000000001,-0.98,-0.726334550784922
0.6300000000000001,-0.98,-0.7060516157191353
0.6400000000000001,-0.98,-0.6829822174904052
0.6500000000000001,-0.98,-0.6572174004741347
0.6600000000000001,-0.98,-0.6288588466322637
0.6699999999999999,-0.98,-0.5980184742210132
0.6799999999999999,-0.98,-0.5648179961006655
0.69,-0.98,-0.5293884393905057
0.7,-0.98,-0.49186962836464376
0.71,-0.98,-0.4524096326294845
0.72,-0.98,-0.4111641827606379
0.73,-0.98,-0.3682960557054819
0.74,-0.98,-0.32397443237691953
0.75,-0.98,-0.2783742299736046
0.76,-0.98,-0.23167541166167221
0.77,-0.98,-0.1840622763423389
0.78,-0.98,-0.13572273130833767
0.79,-0.98,-0.08684755065968032
0.8,-0.98,-0.037629622405440905
0.81,-0.98,0.01173681277709351
0.8200000000000001,-0.98,0.061056928121636544
0.8300000000000001,-0.98,0.11013607966514045
0.8400000000000001,-0.98,0.15878057441859486
0.8500000000000001,-0.98,0.20679843478476323
0.8600000000000001,-0.98,0.2540001562060542
0.8700000000000001,-0.98,0.3001994550524334
0.8800000000000001,-0.98,0.34521400379780576
0.8900000000000001,-0.98,0.3888661505834645
0.9000000000000001,-0.98,0.43098362032881554
0.9100000000000001,-0.98,0.47140019462241606
0.9199999999999999,-0.98,0.509956367710105
0.9299999999999999,-0.98,0.5464999759913456
0.94,-0.98,0.5808867985394379
0.95,-0.98,0.6129811262756297
0.96,-0.98,0.6426562975508503
0.97,-0.98,0.6697951980213722
0.98,-0.98,0.6942907228456223
0.99,-0.98,0.7160461993780605
1.0,-0.98,0.7349757686919446

-1.0,-0.97,0.746295762860063
-0.99,-0.97,0.7617106716141391
-0.98,-0.97,0.7741194563398582
-0.97,-0.97,0.7834731452329423
-0.96,-0.97,0.7897348235566255
-0.95,-0.97,0.792879779327252
-0.94,-0.97,0.7928956008411887
-0.9299999999999999,-0.97,0.7897822256581487
-0.92,-0.97,0.783551940847613
-0.91,-0.97,0.774229334497383
-0.9,-0.97,0.7618511986756298
-0.89,-0.97,0.7464663842294086
-0.88,-0.97,0.7281356079926855
-0.87,-0.97,0.7069312131647321
-0.86,-0.97,0.6829368838045677
-0.85,-0.97,0.6562473145682106
-0.84,-0.97,0.6269678369921325
-0.83,-0.97,0.5952140037978053
-0.8200000000000001,-0.97,0.5611111328579004
-0.81,-0.97,0.5247938126238976
-0.8,-0.97,0.4864053709669549
-0.79,-0.97,0.4460973095282828
-0.78,-0.97,0.40402870581137673
-0.77,-0.97,0.3603655853757913
-0.76,-0.97,0.31528026661010317
-0.75,-0.97,0.2689506806699576
-0.74,-0.97,0.2215596692650858
-0.73,-0.97,0.17329426306660956
-0.72,-0.97,0.12434494358242723
-0.71,-0.97,0.07490489141372625
-0.7,-0.97,0.025169223859404947
-0.69,-0.97,-0.02466577512276478
-0.6799999999999999,-0.97,-0.07440342955924578
-0.6699999999999999,-0.97,-0.12384744765094995
-0.6599999999999999,-0.97,-0.17280269644729274
-0.6499999999999999,-0.97,-0.2210759719468005
-0.64,-0.97,-0.26847676158503875
-0.63,-0.97,-0.31481799610066585
-0.62,-0.97,-0.35991678781234515
-0.61,-0.97,-0.40359515239286814
-0.6,-0.97,-0.4456807112919832
-0.59,-0.97,-0.48600737203577765
-0.5800000000000001,-0.97,-0.5244159837177951
-0.5700000000000001,-0.97,-0.5607549650949517
-0.56,-0.97,-0.594880902809453
-0.55,-0.97,-0.6266591173757992
-0.54,-0.97,-0.6559641946991804
-0.53,-0.97,-0.6826804810276184
-0.52,-0.97,-0.706702539384485
-0.51,-0.97,-0.7279355656800804
-0.5,-0.97,-0.7462957628600626
-0.49,-0.97,-0.7617106716141386
-0.48,-0.97,-0.7741194563398579
-0.47,-0.97,-0.7834731452329426
-0.45999999999999996,-0.97,-0.7897348235566255
-0.44999999999999996,-0.97,-0.7928797793272515
-0.43999999999999995,-0.97,-0.7928956008411887
-0.42999999999999994,-0.97,-0.7897822256581485
-0.42000000000000004,-0.97,-0.7835519408476135
-0.41000000000000003,-0.97,-0.7742293344973836
-0.4,-0.97,-0.7618511986756297
-0.39,-0.97,-0.7464663842294086
-0.38,-0.97,-0.7281356079926853
-0.37,-0.97,-0.706931213164732
-0.36,-0.97,-0.6829368838045675
-0.35,-0.97,-0.6562473145682108
-0.33999999999999997,-0.97,-0.6269678369921325
-0.32999999999999996,-0.97,-0.5952140037978058
-0.31999999999999995,-0.97,-0.5611111328579005
-0.30999999999999994,-0.97,-0.5247938126238976
-0.29999999999999993,-0.97,-0.4864053709669554
-0.29000000000000004,-0.97,-0.44609730952828286
-0.28,-0.97,-0.4040287058113768
-0.27,-0.97,-0.3603655853757913
-0.26,-0.97,-0.3152802666101031
-0.25,-0.97,-0.26895068066995764
-0.24,-0.97,-0.22155966926508586
-0.22999999999999998,-0.97,-0.17329426306660967
-0.21999999999999997,-0.97,-0.1243449435824274
-0.20999999999999996,-0.97,-0.07490489141372648
-0.19999999999999996,-0.97,-0.02516922385940512
-0.18999999999999995,-0.97,0.024665775122764584
-0.17999999999999994,-0.97,0.0744034295592456
-0.16999999999999993,-0.97,0.12384744765094977
-0.16000000000000003,-0.97,0.1728026964472925
-0.15000000000000002,-0.97,0.22107597194680034
-0.14,-0.97,0.2684767615850384
-0.13,-0.97,0.31481799610066563
-0.12,-0.97,0.3599167878123447
-0.10999999999999999,-0.97,0.4035951523928685
-0.09999999999999998,-0.97,0.4456807112919832
-0.08999999999999997,-0.97,0.48600737203577765
-0.07999999999999996,-0.97,0.5244159837177946
-0.06999999999999995,-0.97,0.5607549650949519
-0.05999999999999994,-0.97,0.594880902809453
-0.04999999999999993,-0.97,0.6266591173757988
-0.040000000000000036,-0.97,0.6559641946991803
-0.030000000000000027,-0.97,0.682680481027618
-0.020000000000000018,-0.97,0.7067025393844851
-0.010000000000000009,-0.97,0.7279355656800806
0.0,-0.97,0.7462957628600624
0.010000000000000009,-0.97,0.7617106716141387
0.020000000000000018,-0.97,0.7741194563398579
0.030000000000000027,-0.97,0.7834731452329424
0.040000000000000036,-0.97,0.7897348235566255
0.050000000000000044,-0.97,0.792879779327252
0.06000000000000005,-0.97,0.7928956008411889
0.07000000000000006,-0.97,0.7897822256581482
0.08000000000000007,-0.97,0.7835519408476133
0.09000000000000008,-0.97,0.7742293344973832
0.10000000000000009,-0.97,0.7618511986756297
0.1100000000000001,-0.97,0.7464663842294084
0.1200000000000001,-0.97,0.7281356079926857
0.13000000000000012,-0.97,0.7069312131647323
0.14000000000000012,-0.97,0.6829368838045676
0.15000000000000013,-0.97,0.6562473145682113
0.15999999999999992,-0.97,0.6269678369921324
0.16999999999999993,-0.97,0.5952140037978054
0.17999999999999994,-0.97,0.5611111328579004
0.18999999999999995,-0.97,0.5247938126238976
0.19999999999999996,-0.97,0.48640537096695535
0.20999999999999996,-0.97,0.4460973095282824
0.21999999999999997,-0.97,0.4040287058113768
0.22999999999999998,-0.97,0.3603655853757912
0.24,-0.97,0.3152802666101032
0.25,-0.97,0.2689506806699576
0.26,-0.97,0.22155966926508594
0.27,-0.97,0.17329426306660972
0.28,-0.97,0.1243449435824273
0.29000000000000004,-0.97,0.07490489141372633
0.30000000000000004,-0.97,0.02516922385940512
0.31000000000000005,-0.97,-0.024665775122764754
0.32000000000000006,-0.97,-0.07440342955924559
0.33000000000000007,-0.97,-0.12384744765094978
0.3400000000000001,-0.97,-0.17280269644729254
0.3500000000000001,-0.97,-0.22107597194680026
0.3600000000000001,-0.97,-0.2684767615850383
0.3700000000000001,-0.97,-0.31481799610066585
0.3800000000000001,-0.97,-0.35991678781234515
0.3900000000000001,-0.97,-0.4035951523928682
0.40000000000000013,-0.97,-0.4456807112919833
0.4099999999999999,-0.97,-0.48600737203577776
0.41999999999999993,-0.97,-0.5244159837177949
0.42999999999999994,-0.97,-0.5607549650949515
0.43999999999999995,-0.97,-0.5948809028094528
0.44999999999999996,-0.97,-0.6266591173757989
0.45999999999999996,-0.97,-0.6559641946991799
0.47,-0.97,-0.6826804810276189
0.48,-0.97,-0.7067025393844852
0.49,-0.97,-0.7279355656800806
0.5,-0.97,-0.7462957628600625
0.51,-0.97,-0.7617106716141387
0.52,-0.97,-0.7741194563398578
0.53,-0.97,-0.7834731452329424
0.54,-0.97,-0.7897348235566258
0.55,-0.97,-0.7928797793272515
0.56,-0.97,-0.7928956008411889
0.5700000000000001,-0.97,-0.7897822256581483
0.5800000000000001,-0.97,-0.7835519408476131
0.5900000000000001,-0.97,-0.7742293344973834
0.6000000000000001,-0.97,-0.7618511986756298
0.6100000000000001,-0.97,-0.7464663842294086
0.6200000000000001,-0.97,-0.7281356079926857
0.6300000000000001,-0.97,-0.7069312131647323
0.6400000000000001,-0.97,-0.6829368838045675
0.6500000000000001,-0.97,-0.6562473145682111
0.6600000000000001,-0.97,-0.6269678369921329
0.6699999999999999,-0.97,-0.5952140037978055