TITLE = "Solution" 
VARIABLES = "x", "y", "sol" 
ZONE STRANDID=1, SOLUTIONTIME= 1.3999999999999921, I= 201, J =201, DATAPACKING=POINT 
-1.0,-1.0,0.13308448033950598
-0.99,-1.0,0.16268053489776954
-0.98,-1.0,0.19163456370645848
-0.97,-1.0,0.21983229844170232
-0.96,-1.0,0.24716245552682078
-0.95,-1.0,0.2735171753177599
-0.94,-1.0,0.2987924477758308
-0.9299999999999999,-1.0,0.3228885229478155
-0.92,-1.0,0.34571030463345953
-0.91,-1.0,0.36716772568672973
-0.9,-1.0,0.3871761034696929
-0.89,-1.0,0.4056564740561968
-0.88,-1.0,0.4225359038664156
-0.87,-1.0,0.43774777750236604
-0.86,-1.0,0.451232060648451
-0.85,-1.0,0.46293553699947576
-0.84,-1.0,0.47281201828109304
-0.83,-1.0,0.48082252653381863
-0.8200000000000001,-1.0,0.4869354479412331
-0.81,-1.0,0.49112665759526847
-0.8,-1.0,0.49337961470620273
-0.79,-1.0,0.49368542788159675
-0.78,-1.0,0.4920428902165599
-0.77,-1.0,0.48845848405685255
-0.76,-1.0,0.48294635541602715
-0.75,-1.0,0.47552825814757704
-0.74,-1.0,0.46623346809241456
-0.73,-1.0,0.45509866754050193
-0.72,-1.0,0.44216780046261095
-0.71,-1.0,0.42749189908354657
-0.7,-1.0,0.41112888248127116
-0.69,-1.0,0.39314332800676155
-0.6799999999999999,-1.0,0.37360621642671166
-0.6699999999999999,-1.0,0.35259465179486976
-0.6599999999999999,-1.0,0.33019155715756743
-0.6499999999999999,-1.0,0.3064853472943376
-0.64,-1.0,0.28156957978517305
-0.63,-1.0,0.2555425857815014
-0.62,-1.0,0.22850708193805258
-0.61,-1.0,0.20056976503714974
-0.6,-1.0,0.17184089090525476
-0.59,-1.0,0.1424338392835922
-0.5800000000000001,-1.0,0.11246466637010874
-0.5700000000000001,-1.0,0.0820516467986811
-0.56,-1.0,0.05131480686317084
-0.55,-1.0,0.020375450828476846
-0.54,-1.0,-0.010644317801979039
-0.53,-1.0,-0.04162207817299674
-0.52,-1.0,-0.07243557521678451
-0.51,-1.0,-0.10296320213785806
-0.5,-1.0,-0.13308448033950604
-0.49,-1.0,-0.1626805348977695
-0.48,-1.0,-0.1916345637064585
-0.47,-1.0,-0.2198322984417024
-0.45999999999999996,-1.0,-0.24716245552682076
-0.44999999999999996,-1.0,-0.27351717531776
-0.43999999999999995,-1.0,-0.2987924477758308
-0.42999999999999994,-1.0,-0.32288852294781545
-0.42000000000000004,-1.0,-0.34571030463345953
-0.41000000000000003,-1.0,-0.36716772568672995
-0.4,-1.0,-0.3871761034696928
-0.39,-1.0,-0.405656474056197
-0.38,-1.0,-0.4225359038664154
-0.37,-1.0,-0.4377477775023658
-0.36,-1.0,-0.4512320606484511
-0.35,-1.0,-0.46293553699947604
-0.33999999999999997,-1.0,-0.4728120182810932
-0.32999999999999996,-1.0,-0.48082252653381896
-0.31999999999999995,-1.0,-0.4869354479412329
-0.30999999999999994,-1.0,-0.49112665759526863
-0.29999999999999993,-1.0,-0.49337961470620295
-0.29000000000000004,-1.0,-0.49368542788159675
-0.28,-1.0,-0.49204289021655995
-0.27,-1.0,-0.4884584840568524
-0.26,-1.0,-0.48294635541602693
-0.25,-1.0,-0.4755282581475768
-0.24,-1.0,-0.4662334680924143
-0.22999999999999998,-1.0,-0.45509866754050177
-0.21999999999999997,-1.0,-0.44216780046261084
-0.20999999999999996,-1.0,-0.42749189908354657
-0.19999999999999996,-1.0,-0.4111288824812707
-0.18999999999999995,-1.0,-0.3931433280067619
-0.17999999999999994,-1.0,-0.3736062164267116
-0.16999999999999993,-1.0,-0.3525946517948699
-0.16000000000000003,-1.0,-0.33019155715756743
-0.15000000000000002,-1.0,-0.3064853472943376
-0.14,-1.0,-0.2815695797851731
-0.13,-1.0,-0.25554258578150146
-0.12,-1.0,-0.22850708193805264
-0.10999999999999999,-1.0,-0.2005697650371498
-0.09999999999999998,-1.0,-0.17184089090525503
-0.08999999999999997,-1.0,-0.14243383928359243
-0.07999999999999996,-1.0,-0.11246466637010889
-0.06999999999999995,-1.0,-0.08205164679868128
-0.05999999999999994,-1.0,-0.051314806863171025
-0.04999999999999993,-1.0,-0.02037545082847697
-0.040000000000000036,-1.0,0.010644317801978954
-0.030000000000000027,-1.0,0.04162207817299676
-0.020000000000000018,-1.0,0.0724355752167844
-0.010000000000000009,-1.0,0.10296320213785799
0.0,-1.0,0.13308448033950585
0.010000000000000009,-1.0,0.16268053489776954
0.020000000000000018,-1.0,0.19163456370645843
0.030000000000000027,-1.0,0.21983229844170224
0.040000000000000036,-1.0,0.2471624555268208
0.050000000000000044,-1.0,0.27351717531775965
0.06000000000000005,-1.0,0.2987924477758307
0.07000000000000006,-1.0,0.3228885229478153
0.08000000000000007,-1.0,0.3457103046334593
0.09000000000000008,-1.0,0.36716772568673
0.10000000000000009,-1.0,0.38717610346969256
0.1100000000000001,-1.0,0.4056564740561967
0.1200000000000001,-1.0,0.4225359038664157
0.13000000000000012,-1.0,0.43774777750236615
0.14000000000000012,-1.0,0.4512320606484509
0.15000000000000013,-1.0,0.4629355369994761
0.15999999999999992,-1.0,0.4728120182810933
0.16999999999999993,-1.0,0.48082252653381874
0.17999999999999994,-1.0,0.4869354479412332
0.18999999999999995,-1.0,0.49112665759526863
0.19999999999999996,-1.0,0.4933796147062029
0.20999999999999996,-1.0,0.49368542788159675
0.21999999999999997,-1.0,0.49204289021655995
0.22999999999999998,-1.0,0.48845848405685244
0.24,-1.0,0.48294635541602693
0.25,-1.0,0.47552825814757693
0.26,-1.0,0.4662334680924144
0.27,-1.0,0.45509866754050193
0.28,-1.0,0.44216780046261067
0.29000000000000004,-1.0,0.4274918990835468
0.30000000000000004,-1.0,0.4111288824812711
0.31000000000000005,-1.0,0.39314332800676177
0.32000000000000006,-1.0,0.3736062164267117
0.33000000000000007,-1.0,0.35259465179487
0.3400000000000001,-1.0,0.33019155715756754
0.3500000000000001,-1.0,0.30648534729433763
0.3600000000000001,-1.0,0.28156957978517316
0.3700000000000001,-1.0,0.2555425857815015
0.3800000000000001,-1.0,0.22850708193805275
0.3900000000000001,-1.0,0.20056976503714977
0.40000000000000013,-1.0,0.17184089090525495
0.4099999999999999,-1.0,0.14243383928359232
0.41999999999999993,-1.0,0.11246466637010888
0.42999999999999994,-1.0,0.08205164679868124
0.43999999999999995,-1.0,0.05131480686317087
0.44999999999999996,-1.0,0.020375450828476936
0.45999999999999996,-1.0,-0.010644317801978978
0.47,-1.0,-0.04162207817299672
0.48,-1.0,-0.07243557521678443
0.49,-1.0,-0.10296320213785796
0.5,-1.0,-0.13308448033950604
0.51,-1.0,-0.16268053489776968
0.52,-1.0,-0.19163456370645843
0.53,-1.0,-0.21983229844170227
0.54,-1.0,-0.24716245552682065
0.55,-1.0,-0.2735171753177596
0.56,-1.0,-0.2987924477758307
0.5700000000000001,-1.0,-0.3228885229478153
0.5800000000000001,-1.0,-0.3457103046334593
0.5900000000000001,-1.0,-0.36716772568672973
0.6000000000000001,-1.0,-0.38717610346969283
0.6100000000000001,-1.0,-0.40565647405619715
0.6200000000000001,-1.0,-0.42253590386641543
0.6300000000000001,-1.0,-0.43774777750236576
0.6400000000000001,-1.0,-0.4512320606484511
0.6500000000000001,-1.0,-0.46293553699947587
0.6600000000000001,-1.0,-0.4728120182810931
0.6699999999999999,-1.0,-0.48082252653381885
0.6799999999999999,-1.0,-0.48693544794123306
0.69,-1.0,-0.4911266575952684
0.7,-1.0,-0.4933796147062031
0.71,-1.0,-0.49368542788159675
0.72,-1.0,-0.4920428902165599
0.73,-1.0,-0.4884584840568521
0.74,-1.0,-0.48294635541602693
0.75,-1.0,-0.4755282581475767
0.76,-1.0,-0.4662334680924144
0.77,-1.0,-0.4550986675405018
0.78,-1.0,-0.4421678004626106
0.79,-1.0,-0.42749189908354657
0.8,-1.0,-0.411128882481271
0.81,-1.0,-0.393143328006762
0.8200000000000001,-1.0,-0.3736062164267119
0.8300000000000001,-1.0,-0.3525946517948698
0.8400000000000001,-1.0,-0.33019155715756765
0.8500000000000001,-1.0,-0.3064853472943376
0.8600000000000001,-1.0,-0.28156957978517333
0.8700000000000001,-1.0,-0.2555425857815014
0.8800000000000001,-1.0,-0.22850708193805278
0.8900000000000001,-1.0,-0.2005697650371498
0.9000000000000001,-1.0,-0.17184089090525495
0.9100000000000001,-1.0,-0.14243383928359235
0.9199999999999999,-1.0,-0.11246466637010885
0.9299999999999999,-1.0,-0.08205164679868115
0.94,-1.0,-0.051314806863170845
0.95,-1.0,-0.020375450828476895
0.96,-1.0,0.010644317801979043
0.97,-1.0,0.04162207817299683
0.98,-1.0,0.07243557521678445
0.99,-1.0,0.102963202137858
1.0,-1.0,0.13308448033950598

-1.0,-0.99,0.16268053489776954
-0.99,-0.99,0.1939023202341174
-0.98,-0.99,0.22435886169804484
-0.97,-0.99,0.2539299612346642
-0.96,-0.99,0.2824989152238546
-0.95,-0.99,0.3099529750561342
-0.94,-0.99,0.3361837920999119
-0.9299999999999999,-0.99,0.3610878453040365
-0.92,-0.99,0.38456684974809063
-0.91,-0.99,0.40652814452807096
-0.9,-0.99,0.4268850584466415
-0.89,-0.99,0.4455572520647552
-0.88,-0.99,0.46247103476471557
-0.87,-0.99,0.47755965557337765
-0.86,-0.99,0.4907635665977448
-0.85,-0.99,0.5020306580332976
-0.84,-0.99,0.5113164638175833
-0.83,-0.99,0.518584337117454
-0.8200000000000001,-0.99,0.523805594957369
-0.81,-0.99,0.5269596314180008
-0.8,-0.99,0.5280339989583815
-0.79,-0.99,0.5270244575406609
-0.78,-0.99,0.5239349913635991
-0.77,-0.99,0.5187777931387542
-0.76,-0.99,0.5115732159714197
-0.75,-0.99,0.5023496930362169
-0.74,-0.99,0.49114362536434464
-0.73,-0.99,0.47799923818533785
-0.72,-0.99,0.46296840639029313
-0.71,-0.99,0.446110449805372
-0.7,-0.99,0.4274918990835463
-0.69,-0.99,0.40718623313850993
-0.6799999999999999,-0.99,0.3852735891569703
-0.6699999999999999,-0.99,0.36184044633378837
-0.6599999999999999,-0.99,0.3369792845781023
-0.6499999999999999,-0.99,0.3107882195373776
-0.64,-0.99,0.2833706153797705
-0.63,-0.99,0.25483467686297917
-0.62,-0.99,0.22529302229949913
-0.61,-0.99,0.1948622391035944
-0.6,-0.99,0.16366242367403683
-0.59,-0.99,0.1318167074284869
-0.5800000000000001,-0.99,0.09945077086004189
-0.5700000000000001,-0.99,0.06669234753374782
-0.56,-0.99,0.0336707199805733
-0.55,-0.99,0.0005162094783242744
-0.54,-0.99,-0.032640338266902005
-0.53,-0.99,-0.06566806950894108
-0.52,-0.99,-0.09843663888151552
-0.51,-0.99,-0.13081672381184714
-0.5,-0.99,-0.1626805348977695
-0.49,-0.99,-0.1939023202341174
-0.48,-0.99,-0.22435886169804495
-0.47,-0.99,-0.25392996123466416
-0.45999999999999996,-0.99,-0.2824989152238547
-0.44999999999999996,-0.99,-0.3099529750561342
-0.43999999999999995,-0.99,-0.336183792099912
-0.42999999999999994,-0.99,-0.3610878453040365
-0.42000000000000004,-0.99,-0.3845668497480907
-0.41000000000000003,-0.99,-0.40652814452807096
-0.4,-0.99,-0.4268850584466416
-0.39,-0.99,-0.44555725206475505
-0.38,-0.99,-0.46247103476471524
-0.37,-0.99,-0.47755965557337765
-0.36,-0.99,-0.4907635665977451
-0.35,-0.99,-0.5020306580332979
-0.33999999999999997,-0.99,-0.5113164638175837
-0.32999999999999996,-0.99,-0.5185843371174537
-0.31999999999999995,-0.99,-0.5238055949573692
-0.30999999999999994,-0.99,-0.5269596314180012
-0.29999999999999993,-0.99,-0.5280339989583815
-0.29000000000000004,-0.99,-0.5270244575406607
-0.28,-0.99,-0.5239349913635989
-0.27,-0.99,-0.5187777931387539
-0.26,-0.99,-0.5115732159714194
-0.25,-0.99,-0.5023496930362166
-0.24,-0.99,-0.4911436253643444
-0.22999999999999998,-0.99,-0.47799923818533785
-0.21999999999999997,-0.99,-0.46296840639029324
-0.20999999999999996,-0.99,-0.4461104498053714
-0.19999999999999996,-0.99,-0.42749189908354673
-0.18999999999999995,-0.99,-0.40718623313850977
-0.17999999999999994,-0.99,-0.3852735891569703
-0.16999999999999993,-0.99,-0.36184044633378826
-0.16000000000000003,-0.99,-0.3369792845781023
-0.15000000000000002,-0.99,-0.3107882195373776
-0.14,-0.99,-0.28337061537977043
-0.13,-0.99,-0.25483467686297917
-0.12,-0.99,-0.22529302229949924
-0.10999999999999999,-0.99,-0.1948622391035947
-0.09999999999999998,-0.99,-0.163662423674037
-0.08999999999999997,-0.99,-0.13181670742848703
-0.07999999999999996,-0.99,-0.09945077086004209
-0.06999999999999995,-0.99,-0.06669234753374803
-0.05999999999999994,-0.99,-0.033670719980573444
-0.04999999999999993,-0.99,-0.0005162094783243698
-0.040000000000000036,-0.99,0.03264033826690202
-0.030000000000000027,-0.99,0.06566806950894095
-0.020000000000000018,-0.99,0.09843663888151545
-0.010000000000000009,-0.99,0.13081672381184695
0.0,-0.99,0.1626805348977695
0.010000000000000009,-0.99,0.1939023202341173
0.020000000000000018,-0.99,0.22435886169804475
0.030000000000000027,-0.99,0.25392996123466427
0.040000000000000036,-0.99,0.2824989152238544
0.050000000000000044,-0.99,0.309952975056134
0.06000000000000005,-0.99,0.3361837920999119
0.07000000000000006,-0.99,0.36108784530403626
0.08000000000000007,-0.99,0.38456684974809074
0.09000000000000008,-0.99,0.4065281445280706
0.10000000000000009,-0.99,0.4268850584466413
0.1100000000000001,-0.99,0.44555725206475527
0.1200000000000001,-0.99,0.46247103476471557
0.13000000000000012,-0.99,0.47755965557337743
0.14000000000000012,-0.99,0.4907635665977451
0.15000000000000013,-0.99,0.5020306580332979
0.15999999999999992,-0.99,0.5113164638175836
0.16999999999999993,-0.99,0.5185843371174541
0.17999999999999994,-0.99,0.523805594957369
0.18999999999999995,-0.99,0.5269596314180011
0.19999999999999996,-0.99,0.5280339989583815
0.20999999999999996,-0.99,0.5270244575406609
0.21999999999999997,-0.99,0.523934991363599
0.22999999999999998,-0.99,0.5187777931387539
0.24,-0.99,0.5115732159714196
0.25,-0.99,0.5023496930362167
0.26,-0.99,0.4911436253643445
0.27,-0.99,0.4779992381853376
0.28,-0.99,0.46296840639029324
0.29000000000000004,-0.99,0.4461104498053719
0.30000000000000004,-0.99,0.42749189908354657
0.31000000000000005,-0.99,0.4071862331385099
0.32000000000000006,-0.99,0.3852735891569704
0.33000000000000007,-0.99,0.3618404463337884
0.3400000000000001,-0.99,0.33697928457810244
0.3500000000000001,-0.99,0.31078821953737773
0.3600000000000001,-0.99,0.2833706153797705
0.3700000000000001,-0.99,0.2548346768629793
0.3800000000000001,-0.99,0.22529302229949916
0.3900000000000001,-0.99,0.19486223910359463
0.40000000000000013,-0.99,0.16366242367403688
0.4099999999999999,-0.99,0.13181670742848703
0.41999999999999993,-0.99,0.09945077086004206
0.42999999999999994,-0.99,0.06669234753374785
0.43999999999999995,-0.99,0.03367071998057341
0.44999999999999996,-0.99,0.0005162094783243438
0.45999999999999996,-0.99,-0.03264033826690198
0.47,-0.99,-0.06566806950894097
0.48,-0.99,-0.09843663888151544
0.49,-0.99,-0.13081672381184717
0.5,-0.99,-0.16268053489776965
0.51,-0.99,-0.1939023202341173
0.52,-0.99,-0.22435886169804478
0.53,-0.99,-0.2539299612346641
0.54,-0.99,-0.2824989152238544
0.55,-0.99,-0.30995297505613395
0.56,-0.99,-0.3361837920999118
0.5700000000000001,-0.99,-0.36108784530403626
0.5800000000000001,-0.99,-0.3845668497480906
0.5900000000000001,-0.99,-0.40652814452807096
0.6000000000000001,-0.99,-0.4268850584466418
0.6100000000000001,-0.99,-0.44555725206475505
0.6200000000000001,-0.99,-0.4624710347647151
0.6300000000000001,-0.99,-0.47755965557337765
0.6400000000000001,-0.99,-0.4907635665977449
0.6500000000000001,-0.99,-0.5020306580332976
0.6600000000000001,-0.99,-0.5113164638175838
0.6699999999999999,-0.99,-0.5185843371174539
0.6799999999999999,-0.99,-0.5238055949573688
0.69,-0.99,-0.5269596314180014
0.7,-0.99,-0.5280339989583815
0.71,-0.99,-0.5270244575406607
0.72,-0.99,-0.5239349913635987
0.73,-0.99,-0.5187777931387538
0.74,-0.99,-0.5115732159714195
0.75,-0.99,-0.5023496930362167
0.76,-0.99,-0.4911436253643444
0.77,-0.99,-0.4779992381853375
0.78,-0.99,-0.4629684063902931
0.79,-0.99,-0.44611044980537184
0.8,-0.99,-0.4274918990835468
0.81,-0.99,-0.40718623313851016
0.8200000000000001,-0.99,-0.3852735891569703
0.8300000000000001,-0.99,-0.3618404463337885
0.8400000000000001,-0.99,-0.33697928457810244
0.8500000000000001,-0.99,-0.3107882195373778
0.8600000000000001,-0.99,-0.2833706153797704
0.8700000000000001,-0.99,-0.25483467686297934
0.8800000000000001,-0.99,-0.22529302229949924
0.8900000000000001,-0.99,-0.1948622391035946
0.9000000000000001,-0.99,-0.163662423674037
0.9100000000000001,-0.99,-0.13181670742848695
0.9199999999999999,-0.99,-0.09945077086004195
0.9299999999999999,-0.99,-0.06669234753374782
0.94,-0.99,-0.03367071998057335
0.95,-0.99,-0.0005162094783242831
0.96,-0.99,0.0326403382669021
0.97,-0.99,0.06566806950894101
0.98,-0.99,0.09843663888151546
0.99,-0.99,0.13081672381184706
1.0,-0.99,0.16268053489776954

-1.0,-0.98,0.19163456370645848
-0.99,-0.98,0.22435886169804484
-0.98,-0.98,0.25619771776232314
-0.97,-0.98,0.2870254784801971
-0.96,-0.98,0.31672048076397763
-0.95,-0.98,0.34516553200600664
-0.94,-0.98,0.37224837258433974
-0.9299999999999999,-0.98,0.39786211890018713
-0.92,-0.98,0.4219056851986481
-0.91,-0.98,0.4442841825080023
-0.9,-0.98,0.4649092931231332
-0.89,-0.98,0.4836996191551603
-0.88,-0.98,0.5005810037717174
-0.87,-0.98,0.5154868238600943
-0.86,-0.98,0.528358252958224
-0.85,-0.98,0.5391444934158524
-0.84,-0.98,0.5478029768696586
-0.83,-0.98,0.5542995322411337
-0.8200000000000001,-0.98,0.5586085205942216
-0.81,-0.98,0.560712936320482
-0.8,-0.98,0.560604474252459
-0.79,-0.98,0.558283562440384
-0.78,-0.98,0.553759360462855
-0.77,-0.98,0.5470497232781663
-0.76,-0.98,0.5381811307589439
-0.75,-0.98,0.5271885831881873
-0.74,-0.98,0.5141154631291402
-0.73,-0.98,0.4990133642141358
-0.72,-0.98,0.4819418875280991
-0.71,-0.98,0.4629684063902927
-0.7,-0.98,0.4421678004626108
-0.69,-0.98,0.4196221602337551
-0.6799999999999999,-0.98,0.39542046304558653
-0.6699999999999999,-0.98,0.3696582219402027
-0.6599999999999999,-0.98,0.34243710871359845
-0.6499999999999999,-0.98,0.3138645526635353
-0.64,-0.98,0.28405331661518374
-0.63,-0.98,0.2531210518977681
-0.62,-0.98,0.22118983402852097
-0.61,-0.98,0.1883856809363863
-0.6,-0.98,0.1548380556268265
-0.59,-0.98,0.12067935525048648
-0.5800000000000001,-0.98,0.08604438859212596
-0.5700000000000001,-0.98,0.051069844041934105
-0.56,-0.98,0.015893750148901258
-0.55,-0.98,-0.019345069114805546
-0.54,-0.98,-0.05450754222863777
-0.53,-0.98,-0.08945489897542078
-0.52,-0.98,-0.1240492181040037
-0.51,-0.98,-0.15815397164142697
-0.5,-0.98,-0.1916345637064585
-0.49,-0.98,-0.22435886169804495
-0.48,-0.98,-0.2561977177623231
-0.47,-0.98,-0.2870254784801972
-0.45999999999999996,-0.98,-0.31672048076397763
-0.44999999999999996,-0.98,-0.34516553200600675
-0.43999999999999995,-0.98,-0.37224837258433985
-0.42999999999999994,-0.98,-0.3978621189001872
-0.42000000000000004,-0.98,-0.4219056851986479
-0.41000000000000003,-0.98,-0.44428418250800245
-0.4,-0.98,-0.4649092931231331
-0.39,-0.98,-0.4836996191551598
-0.38,-0.98,-0.5005810037717172
-0.37,-0.98,-0.5154868238600946
-0.36,-0.98,-0.5283582529582245
-0.35,-0.98,-0.5391444934158527
-0.33999999999999997,-0.98,-0.5478029768696582
-0.32999999999999996,-0.98,-0.5542995322411339
-0.31999999999999995,-0.98,-0.5586085205942222
-0.30999999999999994,-0.98,-0.5607129363204819
-0.29999999999999993,-0.98,-0.560604474252459
-0.29000000000000004,-0.98,-0.5582835624403839
-0.28,-0.98,-0.5537593604628548
-0.27,-0.98,-0.5470497232781659
-0.26,-0.98,-0.5381811307589435
-0.25,-0.98,-0.5271885831881871
-0.24,-0.98,-0.5141154631291402
-0.22999999999999998,-0.98,-0.4990133642141359
-0.21999999999999997,-0.98,-0.4819418875280984
-0.20999999999999996,-0.98,-0.46296840639029335
-0.19999999999999996,-0.98,-0.44216780046261067
-0.18999999999999995,-0.98,-0.4196221602337551
-0.17999999999999994,-0.98,-0.3954204630455864
-0.16999999999999993,-0.98,-0.3696582219402028
-0.16000000000000003,-0.98,-0.34243710871359834
-0.15000000000000002,-0.98,-0.3138645526635352
-0.14,-0.98,-0.2840533166151836
-0.13,-0.98,-0.2531210518977683
-0.12,-0.98,-0.22118983402852127
-0.10999999999999999,-0.98,-0.18838568093638644
-0.09999999999999998,-0.98,-0.1548380556268267
-0.08999999999999997,-0.98,-0.1206793552504867
-0.07999999999999996,-0.98,-0.08604438859212618
-0.06999999999999995,-0.98,-0.051069844041934286
-0.05999999999999994,-0.98,-0.01589375014890136
-0.04999999999999993,-0.98,0.01934506911480554
-0.040000000000000036,-0.98,0.054507542228637615
-0.030000000000000027,-0.98,0.08945489897542071
-0.020000000000000018,-0.98,0.12404921810400353
-0.010000000000000009,-0.98,0.15815397164142697
0.0,-0.98,0.19163456370645843
0.010000000000000009,-0.98,0.22435886169804478
0.020000000000000018,-0.98,0.25619771776232314
0.030000000000000027,-0.98,0.2870254784801969
0.040000000000000036,-0.98,0.3167204807639774
0.050000000000000044,-0.98,0.3451655320060067
0.06000000000000005,-0.98,0.3722483725843396
0.07000000000000006,-0.98,0.3978621189001872
0.08000000000000007,-0.98,0.42190568519864763
0.09000000000000008,-0.98,0.44428418250800206
0.10000000000000009,-0.98,0.4649092931231335
0.1100000000000001,-0.98,0.48369961915516
0.1200000000000001,-0.98,0.500581003771717
0.13000000000000012,-0.98,0.5154868238600946
0.14000000000000012,-0.98,0.5283582529582245
0.15000000000000013,-0.98,0.5391444934158525
0.15999999999999992,-0.98,0.5478029768696584
0.16999999999999993,-0.98,0.5542995322411337
0.17999999999999994,-0.98,0.5586085205942218
0.18999999999999995,-0.98,0.560712936320482
0.19999999999999996,-0.98,0.5606044742524591
0.20999999999999996,-0.98,0.5582835624403839
0.21999999999999997,-0.98,0.5537593604628548
0.22999999999999998,-0.98,0.5470497232781661
0.24,-0.98,0.5381811307589437
0.25,-0.98,0.5271885831881871
0.26,-0.98,0.51411546312914
0.27,-0.98,0.49901336421413595
0.28,-0.98,0.48194188752809886
0.29000000000000004,-0.98,0.462968406390293
0.30000000000000004,-0.98,0.44216780046261067
0.31000000000000005,-0.98,0.4196221602337552
0.32000000000000006,-0.98,0.39542046304558653
0.33000000000000007,-0.98,0.3696582219402029
0.3400000000000001,-0.98,0.3424371087135986
0.3500000000000001,-0.98,0.31386455266353525
0.3600000000000001,-0.98,0.28405331661518385
0.3700000000000001,-0.98,0.2531210518977681
0.3800000000000001,-0.98,0.2211898340285212
0.3900000000000001,-0.98,0.1883856809363863
0.40000000000000013,-0.98,0.1548380556268267
0.4099999999999999,-0.98,0.12067935525048666
0.41999999999999993,-0.98,0.08604438859212599
0.42999999999999994,-0.98,0.05106984404193423
0.43999999999999995,-0.98,0.015893750148901334
0.44999999999999996,-0.98,-0.019345069114805512
0.45999999999999996,-0.98,-0.05450754222863763
0.47,-0.98,-0.0894548989754207
0.48,-0.98,-0.12404921810400371
0.49,-0.98,-0.15815397164142708
0.5,-0.98,-0.19163456370645837
0.51,-0.98,-0.22435886169804478
0.52,-0.98,-0.25619771776232303
0.53,-0.98,-0.2870254784801969
0.54,-0.98,-0.31672048076397735
0.55,-0.98,-0.3451655320060065
0.56,-0.98,-0.3722483725843396
0.5700000000000001,-0.98,-0.397862118900187
0.5800000000000001,-0.98,-0.4219056851986479
0.5900000000000001,-0.98,-0.44428418250800267
0.6000000000000001,-0.98,-0.4649092931231332
0.6100000000000001,-0.98,-0.4836996191551597
0.6200000000000001,-0.98,-0.5005810037717173
0.6300000000000001,-0.98,-0.5154868238600943
0.6400000000000001,-0.98,-0.5283582529582243
0.6500000000000001,-0.98,-0.5391444934158527
0.6600000000000001,-0.98,-0.5478029768696584
0.6699999999999999,-0.98,-0.5542995322411336
0.6799999999999999,-0.98,-0.5586085205942223
0.69,-0.98,-0.560712936320482
0.7,-0.98,-0.5606044742524589
0.71,-0.98,-0.5582835624403835
0.72,-0.98,-0.5537593604628548
0.73,-0.98,-0.5470497232781659
0.74,-0.98,-0.5381811307589437
0.75,-0.98,-0.5271885831881868
0.76,-0.98,-0.5141154631291399
0.77,-0.98,-0.4990133642141358
0.78,-0.98,-0.48194188752809874
0.79,-0.98,-0.46296840639029335
0.8,-0.98,-0.44216780046261095
0.81,-0.98,-0.4196221602337551
0.8200000000000001,-0.98,-0.3954204630455867
0.8300000000000001,-0.98,-0.3696582219402029
0.8400000000000001,-0.98,-0.3424371087135986
0.8500000000000001,-0.98,-0.3138645526635352
0.8600000000000001,-0.98,-0.2840533166151839
0.8700000000000001,-0.98,-0.2531210518977683
0.8800000000000001,-0.98,-0.22118983402852122
0.8900000000000001,-0.98,-0.18838568093638644
0.9000000000000001,-0.98,-0.15483805562682665
0.9100000000000001,-0.98,-0.12067935525048655
0.9199999999999999,-0.98,-0.08604438859212593
0.9299999999999999,-0.98,-0.05106984404193415
0.94,-0.98,-0.01589375014890127
0.95,-0.98,0.01934506911480563
0.96,-0.98,0.054507542228637684
0.97,-0.98,0.08945489897542071
0.98,-0.98,0.12404921810400366
0.99,-0.98,0.158153971641427
1.0,-0.98,0.19163456370645848

-1.0,-0.97,0.21983229844170232
-0.99,-0.97,0.2539299612346642
-0.98,-0.97,0.2870254784801971
-0.97,-0.97,0.3189882372916365
-0.96,-0.97,0.3496920952623492
-0.95,-0.97,0.3790158782921831
-0.94,-0.97,0.4068438588062818
-0.9299999999999999,-0.97,0.4330662124789514
-0.92,-0.97,0.4575794516600987
-0.91,-0.97,0.4802868337937102
-0.9,-0.97,0.5010987432165211
-0.89,-0.97,0.5199330448300955
-0.88,-0.97,0.5367154082505388
-0.87,-0.97,0.5513796011565636
-0.86,-0.97,0.5638677506782017
-0.85,-0.97,0.574130571794585
-0.84,-0.97,0.5821275618394027
-0.83,-0.97,0.587827160346426
-0.8200000000000001,-0.97,0.591206873604247
-0.81,-0.97,0.5922533634286797
-0.8,-0.97,0.5909624998024845
-0.79,-0.97,0.5873393771746533
-0.78,-0.97,0.5813982943549512
-0.77,-0.97,0.5731626980830448
-0.76,-0.97,0.5626650904949337
-0.75,-0.97,0.5499469008518673
-0.74,-0.97,0.5350583220379783
-0.73,-0.97,0.5180581124719015
-0.72,-0.97,0.49901336421413534
-0.71,-0.97,0.47799923818533774
-0.7,-0.97,0.45509866754050166
-0.69,-0.97,0.4304020303696873
-0.6799999999999999,-0.97,0.4040067930169875
-0.6699999999999999,-0.97,0.3760171254253966
-0.6599999999999999,-0.97,0.3465434900256358
-0.6499999999999999,-0.97,0.31570220579140457
-0.64,-0.97,0.28361498918153294
-0.63,-0.97,0.2504084737807255
-0.62,-0.97,0.21621371053465532
-0.61,-0.97,0.1811656505517531
-0.6,-0.97,0.1454026125128359
-0.59,-0.97,0.1090657367904656
-0.5800000000000001,-0.97,0.0722984284323787
-0.5700000000000001,-0.97,0.03524579120727937
-0.56,-0.97,-0.0019459450534447219
-0.55,-0.97,-0.03913000155806078
-0.54,-0.97,-0.0761596298233243
-0.53,-0.97,-0.11288869082370039
-0.52,-0.97,-0.14917223173533223
-0.51,-0.97,-0.18486705799861508
-0.5,-0.97,-0.2198322984417024
-0.49,-0.97,-0.2539299612346641
-0.48,-0.97,-0.2870254784801972
-0.47,-0.97,-0.3189882372916365
-0.45999999999999996,-0.97,-0.34969209526234935
-0.44999999999999996,-0.97,-0.3790158782921833
-0.43999999999999995,-0.97,-0.40684385880628193
-0.42999999999999994,-0.97,-0.4330662124789512
-0.42000000000000004,-0.97,-0.45757945166009895
-0.41000000000000003,-0.97,-0.48028683379371007
-0.4,-0.97,-0.5010987432165205
-0.39,-0.97,-0.5199330448300952
-0.38,-0.97,-0.5367154082505392
-0.37,-0.97,-0.5513796011565641
-0.36,-0.97,-0.563867750678202
-0.35,-0.97,-0.5741305717945848
-0.33999999999999997,-0.97,-0.5821275618394028
-0.32999999999999996,-0.97,-0.5878271603464268
-0.31999999999999995,-0.97,-0.5912068736042466
-0.30999999999999994,-0.97,-0.5922533634286797
-0.29999999999999993,-0.97,-0.5909624998024844
-0.29000000000000004,-0.97,-0.587339377174653
-0.28,-0.97,-0.5813982943549507
-0.27,-0.97,-0.5731626980830444
-0.26,-0.97,-0.5626650904949337
-0.25,-0.97,-0.5499469008518673
-0.24,-0.97,-0.5350583220379785
-0.22999999999999998,-0.97,-0.5180581124719008
-0.21999999999999997,-0.97,-0.4990133642141359
-0.20999999999999996,-0.97,-0.4779992381853377
-0.19999999999999996,-0.97,-0.45509866754050166
-0.18999999999999995,-0.97,-0.43040203036968727
-0.17999999999999994,-0.97,-0.4040067930169876
-0.16999999999999993,-0.97,-0.37601712542539645
-0.16000000000000003,-0.97,-0.34654349002563567
-0.15000000000000002,-0.97,-0.31570220579140446
-0.14,-0.97,-0.28361498918153305
-0.13,-0.97,-0.2504084737807258
-0.12,-0.97,-0.2162137105346555
-0.10999999999999999,-0.97,-0.1811656505517533
-0.09999999999999998,-0.97,-0.14540261251283618
-0.08999999999999997,-0.97,-0.10906573679046587
-0.07999999999999996,-0.97,-0.07229842843237888
-0.06999999999999995,-0.97,-0.035245791207279484
-0.05999999999999994,-0.97,0.0019459450534447097
-0.04999999999999993,-0.97,0.03913000155806061
-0.040000000000000036,-0.97,0.07615962982332422
-0.030000000000000027,-0.97,0.1128886908237002
-0.020000000000000018,-0.97,0.14917223173533226
-0.010000000000000009,-0.97,0.18486705799861497
0.0,-0.97,0.21983229844170227
0.010000000000000009,-0.97,0.25392996123466427
0.020000000000000018,-0.97,0.2870254784801969
0.030000000000000027,-0.97,0.3189882372916363
0.040000000000000036,-0.97,0.3496920952623493
0.050000000000000044,-0.97,0.379015878292183
0.06000000000000005,-0.97,0.40684385880628193
0.07000000000000006,-0.97,0.433066212478951
0.08000000000000007,-0.97,0.4575794516600985
0.09000000000000008,-0.97,0.4802868337937105
0.10000000000000009,-0.97,0.5010987432165208
0.1100000000000001,-0.97,0.5199330448300952
0.1200000000000001,-0.97,0.5367154082505392
0.13000000000000012,-0.97,0.5513796011565641
0.14000000000000012,-0.97,0.5638677506782019
0.15000000000000013,-0.97,0.574130571794585
0.15999999999999992,-0.97,0.5821275618394026
0.16999999999999993,-0.97,0.5878271603464263
0.17999999999999994,-0.97,0.5912068736042468
0.18999999999999995,-0.97,0.59225336342868
0.19999999999999996,-0.97,0.5909624998024844
0.20999999999999996,-0.97,0.587339377174653
0.21999999999999997,-0.97,0.5813982943549509
0.22999999999999998,-0.97,0.5731626980830447
0.24,-0.97,0.5626650904949335
0.25,-0.97,0.5499469008518669
0.26,-0.97,0.5350583220379787
0.27,-0.97,0.5180581124719013
0.28,-0.97,0.49901336421413567
0.29000000000000004,-0.97,0.4779992381853375
0.30000000000000004,-0.97,0.4550986675405018
0.31000000000000005,-0.97,0.4304020303696874
0.32000000000000006,-0.97,0.4040067930169877
0.33000000000000007,-0.97,0.37601712542539684
0.3400000000000001,-0.97,0.34654349002563567
0.3500000000000001,-0.97,0.3157022057914047
0.3600000000000001,-0.97,0.283614989181533
0.3700000000000001,-0.97,0.2504084737807257
0.3800000000000001,-0.97,0.21621371053465532
0.3900000000000001,-0.97,0.18116565055175327
0.40000000000000013,-0.97,0.14540261251283612
0.4099999999999999,-0.97,0.10906573679046565
0.41999999999999993,-0.97,0.07229842843237883
0.42999999999999994,-0.97,0.03524579120727947
0.43999999999999995,-0.97,-0.0019459450534446872
0.44999999999999996,-0.97,-0.03913000155806064
0.45999999999999996,-0.97,-0.07615962982332423
0.47,-0.97,-0.11288869082370037
0.48,-0.97,-0.14917223173533234
0.49,-0.97,-0.18486705799861491
0.5,-0.97,-0.21983229844170227
0.51,-0.97,-0.2539299612346641
0.52,-0.97,-0.2870254784801969
0.53,-0.97,-0.3189882372916362
0.54,-0.97,-0.349692095262349
0.55,-0.97,-0.3790158782921831
0.56,-0.97,-0.4068438588062817
0.5700000000000001,-0.97,-0.4330662124789512
0.5800000000000001,-0.97,-0.4575794516600991
0.5900000000000001,-0.97,-0.48028683379371023
0.6000000000000001,-0.97,-0.5010987432165205
0.6100000000000001,-0.97,-0.5199330448300954
0.6200000000000001,-0.97,-0.536715408250539
0.6300000000000001,-0.97,-0.5513796011565638
0.6400000000000001,-0.97,-0.5638677506782022