TITLE = "Solution" 
VARIABLES = "x", "y", "sol" 
ZONE STRANDID=1, SOLUTIONTIME= 1.0999999999999985, I= 201, J =201, DATAPACKING=POINT 
-1.0,-1.0,0.16926994784928828
-0.99,-1.0,0.13907726589329356
-0.98,-1.0,0.108335709507177
-0.97,-1.0,0.07716660156951323
-0.96,-1.0,0.045692952309521424
-0.95,-1.0,0.014038973841888196
-0.94,-1.0,-0.017670410041701924
-0.9299999999999999,-1.0,-0.049310056889699805
-0.92,-1.0,-0.08075509947077629
-0.91,-1.0,-0.11188143856773712
-0.9,-1.0,-0.14256623274043828
-0.89,-1.0,-0.17268838312482937
-0.88,-1.0,-0.20212901135484443
-0.87,-1.0,-0.23077192872100333
-0.86,-1.0,-0.258504094714166
-0.85,-1.0,-0.2852160631447791
-0.84,-1.0,-0.31080241407698417
-0.83,-1.0,-0.3351621698729439
-0.8200000000000001,-1.0,-0.3581991937054457
-0.81,-1.0,-0.3798225689660373
-0.8,-1.0,-0.3999469580713456
-0.79,-1.0,-0.4184929392515314
-0.78,-1.0,-0.43538731999172875
-0.77,-1.0,-0.45056342588946463
-0.76,-1.0,-0.46396136378806385
-0.75,-1.0,-0.4755282581475766
-0.74,-1.0,-0.48521845972037714
-0.73,-1.0,-0.49299372570788935
-0.72,-1.0,-0.49882337068744226
-0.71,-1.0,-0.5026843877136117
-0.7,-1.0,-0.5045615391161282
-0.69,-1.0,-0.5044474166359932
-0.6799999999999999,-1.0,-0.502342470662499
-0.6699999999999999,-1.0,-0.4982550084557446
-0.6599999999999999,-1.0,-0.4922011613616762
-0.6499999999999999,-1.0,-0.4842048211490343
-0.64,-1.0,-0.4742975457194578
-0.63,-1.0,-0.462518434562864
-0.62,-1.0,-0.4489139744496236
-0.61,-1.0,-0.433537855968517
-0.6,-1.0,-0.41645076163450906
-0.59,-1.0,-0.39772012640258486
-0.5800000000000001,-1.0,-0.37741987153279194
-0.5700000000000001,-1.0,-0.35563011285679647
-0.56,-1.0,-0.33243684459729983
-0.55,-1.0,-0.30793159998812486
-0.54,-1.0,-0.282211090034363
-0.53,-1.0,-0.2553768218382187
-0.52,-1.0,-0.227534697996851
-0.51,-1.0,-0.19879459865320526
-0.5,-1.0,-0.1692699478492885
-0.49,-1.0,-0.13907726589329367
-0.48,-1.0,-0.10833570950717708
-0.47,-1.0,-0.0771666015695133
-0.45999999999999996,-1.0,-0.045692952309521556
-0.44999999999999996,-1.0,-0.01403897384188838
-0.43999999999999995,-1.0,0.01767041004170178
-0.42999999999999994,-1.0,0.04931005688969968
-0.42000000000000004,-1.0,0.08075509947077611
-0.41000000000000003,-1.0,0.111881438567737
-0.4,-1.0,0.1425662327404383
-0.39,-1.0,0.17268838312482923
-0.38,-1.0,0.2021290113548444
-0.37,-1.0,0.23077192872100333
-0.36,-1.0,0.2585040947141659
-0.35,-1.0,0.2852160631447789
-0.33999999999999997,-1.0,0.31080241407698417
-0.32999999999999996,-1.0,0.3351621698729438
-0.31999999999999995,-1.0,0.3581991937054457
-0.30999999999999994,-1.0,0.3798225689660372
-0.29999999999999993,-1.0,0.3999469580713456
-0.29000000000000004,-1.0,0.4184929392515313
-0.28,-1.0,0.4353873199917285
-0.27,-1.0,0.4505634258894646
-0.26,-1.0,0.4639613637880642
-0.25,-1.0,0.4755282581475767
-0.24,-1.0,0.4852184597203773
-0.22999999999999998,-1.0,0.49299372570788946
-0.21999999999999997,-1.0,0.4988233706874421
-0.20999999999999996,-1.0,0.502684387713612
-0.19999999999999996,-1.0,0.504561539116128
-0.18999999999999995,-1.0,0.5044474166359929
-0.17999999999999994,-1.0,0.502342470662499
-0.16999999999999993,-1.0,0.4982550084557446
-0.16000000000000003,-1.0,0.49220116136167624
-0.15000000000000002,-1.0,0.4842048211490344
-0.14,-1.0,0.47429754571945804
-0.13,-1.0,0.462518434562864
-0.12,-1.0,0.44891397444962355
-0.10999999999999999,-1.0,0.433537855968517
-0.09999999999999998,-1.0,0.41645076163450934
-0.08999999999999997,-1.0,0.3977201264025847
-0.07999999999999996,-1.0,0.37741987153279183
-0.06999999999999995,-1.0,0.3556301128567966
-0.05999999999999994,-1.0,0.3324368445972996
-0.04999999999999993,-1.0,0.3079315999881248
-0.040000000000000036,-1.0,0.28221109003436295
-0.030000000000000027,-1.0,0.25537682183821875
-0.020000000000000018,-1.0,0.22753469799685097
-0.010000000000000009,-1.0,0.19879459865320528
0.0,-1.0,0.1692699478492884
0.010000000000000009,-1.0,0.1390772658932937
0.020000000000000018,-1.0,0.10833570950717702
0.030000000000000027,-1.0,0.07716660156951329
0.040000000000000036,-1.0,0.04569295230952151
0.050000000000000044,-1.0,0.014038973841888307
0.06000000000000005,-1.0,-0.01767041004170178
0.07000000000000006,-1.0,-0.04931005688969973
0.08000000000000007,-1.0,-0.08075509947077619
0.09000000000000008,-1.0,-0.11188143856773707
0.10000000000000009,-1.0,-0.14256623274043828
0.1100000000000001,-1.0,-0.17268838312482931
0.1200000000000001,-1.0,-0.20212901135484446
0.13000000000000012,-1.0,-0.23077192872100333
0.14000000000000012,-1.0,-0.25850409471416597
0.15000000000000013,-1.0,-0.2852160631447789
0.15999999999999992,-1.0,-0.3108024140769841
0.16999999999999993,-1.0,-0.3351621698729441
0.17999999999999994,-1.0,-0.35819919370544545
0.18999999999999995,-1.0,-0.3798225689660371
0.19999999999999996,-1.0,-0.3999469580713457
0.20999999999999996,-1.0,-0.41849293925153136
0.21999999999999997,-1.0,-0.4353873199917288
0.22999999999999998,-1.0,-0.4505634258894646
0.24,-1.0,-0.4639613637880642
0.25,-1.0,-0.4755282581475766
0.26,-1.0,-0.485218459720377
0.27,-1.0,-0.49299372570788935
0.28,-1.0,-0.4988233706874421
0.29000000000000004,-1.0,-0.502684387713612
0.30000000000000004,-1.0,-0.5045615391161281
0.31000000000000005,-1.0,-0.504447416635993
0.32000000000000006,-1.0,-0.5023424706624989
0.33000000000000007,-1.0,-0.49825500845574483
0.3400000000000001,-1.0,-0.49220116136167635
0.3500000000000001,-1.0,-0.4842048211490344
0.3600000000000001,-1.0,-0.474297545719458
0.3700000000000001,-1.0,-0.4625184345628642
0.3800000000000001,-1.0,-0.44891397444962367
0.3900000000000001,-1.0,-0.4335378559685171
0.40000000000000013,-1.0,-0.4164507616345091
0.4099999999999999,-1.0,-0.3977201264025847
0.41999999999999993,-1.0,-0.3774198715327918
0.42999999999999994,-1.0,-0.3556301128567966
0.43999999999999995,-1.0,-0.3324368445972997
0.44999999999999996,-1.0,-0.30793159998812475
0.45999999999999996,-1.0,-0.282211090034363
0.47,-1.0,-0.2553768218382187
0.48,-1.0,-0.22753469799685094
0.49,-1.0,-0.1987945986532051
0.5,-1.0,-0.16926994784928845
0.51,-1.0,-0.13907726589329358
0.52,-1.0,-0.10833570950717708
0.53,-1.0,-0.07716660156951319
0.54,-1.0,-0.045692952309521445
0.55,-1.0,-0.014038973841888291
0.56,-1.0,0.017670410041701844
0.5700000000000001,-1.0,0.0493100568896998
0.5800000000000001,-1.0,0.08075509947077625
0.5900000000000001,-1.0,0.11188143856773705
0.6000000000000001,-1.0,0.1425662327404383
0.6100000000000001,-1.0,0.17268838312482937
0.6200000000000001,-1.0,0.20212901135484446
0.6300000000000001,-1.0,0.23077192872100333
0.6400000000000001,-1.0,0.258504094714166
0.6500000000000001,-1.0,0.2852160631447791
0.6600000000000001,-1.0,0.31080241407698433
0.6699999999999999,-1.0,0.335162169872944
0.6799999999999999,-1.0,0.3581991937054455
0.69,-1.0,0.37982256896603717
0.7,-1.0,0.39994695807134567
0.71,-1.0,0.41849293925153114
0.72,-1.0,0.4353873199917286
0.73,-1.0,0.45056342588946485
0.74,-1.0,0.46396136378806396
0.75,-1.0,0.4755282581475769
0.76,-1.0,0.48521845972037725
0.77,-1.0,0.49299372570788935
0.78,-1.0,0.49882337068744215
0.79,-1.0,0.5026843877136119
0.8,-1.0,0.5045615391161282
0.81,-1.0,0.5044474166359931
0.8200000000000001,-1.0,0.5023424706624993
0.8300000000000001,-1.0,0.49825500845574455
0.8400000000000001,-1.0,0.49220116136167624
0.8500000000000001,-1.0,0.4842048211490343
0.8600000000000001,-1.0,0.47429754571945804
0.8700000000000001,-1.0,0.4625184345628641
0.8800000000000001,-1.0,0.448913974449624
0.8900000000000001,-1.0,0.4335378559685171
0.9000000000000001,-1.0,0.4164507616345091
0.9100000000000001,-1.0,0.3977201264025848
0.9199999999999999,-1.0,0.3774198715327919
0.9299999999999999,-1.0,0.3556301128567966
0.94,-1.0,0.3324368445972996
0.95,-1.0,0.3079315999881247
0.96,-1.0,0.2822110900343631
0.97,-1.0,0.2553768218382187
0.98,-1.0,0.22753469799685078
0.99,-1.0,0.1987945986532051
1.0,-1.0,0.16926994784928828

-1.0,-0.99,0.13907726589329356
-0.99,-0.99,0.11088879925422579
-0.98,-0.99,0.08226270518477496
-0.97,-0.99,0.053311957800214964
-0.96,-0.99,0.02415081247413426
-0.95,-0.99,-0.005105645075325148
-0.94,-0.99,-0.03434195297621954
-0.9299999999999999,-0.99,-0.06344272887806282
-0.92,-0.99,-0.09229312531325012
-0.91,-0.99,-0.12077928294754411
-0.9,-0.99,-0.14878877993085005
-0.89,-0.99,-0.17621107557489643
-0.88,-0.99,-0.20293794660683157
-0.87,-0.99,-0.2288639142770384
-0.86,-0.99,-0.2538866606355704
-0.85,-0.99,-0.2779074323343559
-0.84,-0.99,-0.30083143036154647
-0.83,-0.99,-0.3225681841699076
-0.8200000000000001,-0.99,-0.3430319087227355
-0.81,-0.99,-0.3621418430482066
-0.8,-0.99,-0.3798225689660372
-0.79,-0.99,-0.3960043087285847
-0.78,-0.99,-0.41062320040173994
-0.77,-0.99,-0.42362154989880507
-0.76,-0.99,-0.43494805867269687
-0.75,-0.99,-0.44455802616787404
-0.74,-0.99,-0.45241352623300957
-0.73,-0.99,-0.4584835567981833
-0.72,-0.99,-0.46274416222588705
-0.71,-0.99,-0.4651785278529843
-0.7,-0.99,-0.46577704635049916
-0.69,-0.99,-0.46453735563936
-0.6799999999999999,-0.99,-0.4614643482124428
-0.6699999999999999,-0.99,-0.45657015182613814
-0.6599999999999999,-0.99,-0.44987408163763676
-0.6499999999999999,-0.99,-0.44140256397682953
-0.64,-0.99,-0.4311890320536552
-0.63,-0.99,-0.4192737940124959
-0.62,-0.99,-0.40570387385434525
-0.61,-0.99,-0.39053282585456106
-0.6,-0.99,-0.3738205232086055
-0.59,-0.99,-0.35563292173989774
-0.5800000000000001,-0.99,-0.33604179960230945
-0.5700000000000001,-0.99,-0.3151244740045864
-0.56,-0.99,-0.29296349607464456
-0.55,-0.99,-0.26964632506798625
-0.54,-0.99,-0.24526498320597262
-0.53,-0.99,-0.21991569250615745
-0.52,-0.99,-0.1936984950379435
-0.51,-0.99,-0.16671685810223966
-0.5,-0.99,-0.13907726589329364
-0.49,-0.99,-0.11088879925422587
-0.48,-0.99,-0.08226270518477502
-0.47,-0.99,-0.053311957800215075
-0.45999999999999996,-0.99,-0.024150812474134437
-0.44999999999999996,-0.99,0.005105645075325004
-0.43999999999999995,-0.99,0.03434195297621942
-0.42999999999999994,-0.99,0.06344272887806263
-0.42000000000000004,-0.99,0.09229312531324997
-0.41000000000000003,-0.99,0.12077928294754411
-0.4,-0.99,0.14878877993084988
-0.39,-0.99,0.17621107557489635
-0.38,-0.99,0.20293794660683162
-0.37,-0.99,0.22886391427703828
-0.36,-0.99,0.25388666063557025
-0.35,-0.99,0.2779074323343559
-0.33999999999999997,-0.99,0.3008314303615464
-0.32999999999999996,-0.99,0.3225681841699075
-0.31999999999999995,-0.99,0.34303190872273537
-0.30999999999999994,-0.99,0.3621418430482066
-0.29999999999999993,-0.99,0.37982256896603717
-0.29000000000000004,-0.99,0.39600430872858455
-0.28,-0.99,0.41062320040173983
-0.27,-0.99,0.4236215498988055
-0.26,-0.99,0.43494805867269704
-0.25,-0.99,0.44455802616787427
-0.24,-0.99,0.4524135262330097
-0.22999999999999998,-0.99,0.45848355679818337
-0.21999999999999997,-0.99,0.4627441622258872
-0.20999999999999996,-0.99,0.4651785278529839
-0.19999999999999996,-0.99,0.4657770463504988
-0.18999999999999995,-0.99,0.46453735563936005
-0.17999999999999994,-0.99,0.4614643482124428
-0.16999999999999993,-0.99,0.45657015182613814
-0.16000000000000003,-0.99,0.449874081637637
-0.15000000000000002,-0.99,0.4414025639768297
-0.14,-0.99,0.43118903205365533
-0.13,-0.99,0.41927379401249587
-0.12,-0.99,0.4057038738543454
-0.10999999999999999,-0.99,0.3905328258545613
-0.09999999999999998,-0.99,0.3738205232086055
-0.08999999999999997,-0.99,0.35563292173989763
-0.07999999999999996,-0.99,0.3360417996023095
-0.06999999999999995,-0.99,0.3151244740045862
-0.05999999999999994,-0.99,0.2929634960746446
-0.04999999999999993,-0.99,0.2696463250679862
-0.040000000000000036,-0.99,0.24526498320597265
-0.030000000000000027,-0.99,0.21991569250615745
-0.020000000000000018,-0.99,0.19369849503794356
-0.010000000000000009,-0.99,0.16671685810223957
0.0,-0.99,0.13907726589329367
0.010000000000000009,-0.99,0.11088879925422584
0.020000000000000018,-0.99,0.082262705184775
0.030000000000000027,-0.99,0.05331195780021503
0.040000000000000036,-0.99,0.024150812474134368
0.050000000000000044,-0.99,-0.005105645075325011
0.06000000000000005,-0.99,-0.03434195297621946
0.07000000000000006,-0.99,-0.06344272887806274
0.08000000000000007,-0.99,-0.09229312531325007
0.09000000000000008,-0.99,-0.12077928294754414
0.10000000000000009,-0.99,-0.14878877993084993
0.1100000000000001,-0.99,-0.17621107557489646
0.1200000000000001,-0.99,-0.20293794660683157
0.13000000000000012,-0.99,-0.22886391427703828
0.14000000000000012,-0.99,-0.2538866606355703
0.15000000000000013,-0.99,-0.2779074323343558
0.15999999999999992,-0.99,-0.3008314303615467
0.16999999999999993,-0.99,-0.3225681841699074
0.17999999999999994,-0.99,-0.3430319087227353
0.18999999999999995,-0.99,-0.36214184304820674
0.19999999999999996,-0.99,-0.37982256896603717
0.20999999999999996,-0.99,-0.3960043087285847
0.21999999999999997,-0.99,-0.4106232004017398
0.22999999999999998,-0.99,-0.42362154989880535
0.24,-0.99,-0.4349480586726968
0.25,-0.99,-0.444558026167874
0.26,-0.99,-0.45241352623300957
0.27,-0.99,-0.4584835567981834
0.28,-0.99,-0.4627441622258873
0.29000000000000004,-0.99,-0.465178527852984
0.30000000000000004,-0.99,-0.4657770463504989
0.31000000000000005,-0.99,-0.46453735563935983
0.32000000000000006,-0.99,-0.46146434821244303
0.33000000000000007,-0.99,-0.45657015182613814
0.3400000000000001,-0.99,-0.4498740816376369
0.3500000000000001,-0.99,-0.44140256397682964
0.3600000000000001,-0.99,-0.43118903205365544
0.3700000000000001,-0.99,-0.4192737940124959
0.3800000000000001,-0.99,-0.40570387385434536
0.3900000000000001,-0.99,-0.39053282585456106
0.40000000000000013,-0.99,-0.3738205232086055
0.4099999999999999,-0.99,-0.35563292173989763
0.41999999999999993,-0.99,-0.3360417996023095
0.42999999999999994,-0.99,-0.31512447400458615
0.43999999999999995,-0.99,-0.29296349607464456
0.44999999999999996,-0.99,-0.26964632506798625
0.45999999999999996,-0.99,-0.24526498320597265
0.47,-0.99,-0.21991569250615745
0.48,-0.99,-0.19369849503794334
0.49,-0.99,-0.16671685810223963
0.5,-0.99,-0.13907726589329358
0.51,-0.99,-0.11088879925422586
0.52,-0.99,-0.08226270518477494
0.53,-0.99,-0.053311957800214985
0.54,-0.99,-0.024150812474134357
0.55,-0.99,0.005105645075325073
0.56,-0.99,0.034341952976219524
0.5700000000000001,-0.99,0.06344272887806277
0.5800000000000001,-0.99,0.09229312531325004
0.5900000000000001,-0.99,0.12077928294754416
0.6000000000000001,-0.99,0.14878877993085005
0.6100000000000001,-0.99,0.17621107557489646
0.6200000000000001,-0.99,0.20293794660683165
0.6300000000000001,-0.99,0.22886391427703834
0.6400000000000001,-0.99,0.2538866606355704
0.6500000000000001,-0.99,0.27790743233435605
0.6600000000000001,-0.99,0.30083143036154647
0.6699999999999999,-0.99,0.32256818416990746
0.6799999999999999,-0.99,0.34303190872273537
0.69,-0.99,0.36214184304820657
0.7,-0.99,0.379822568966037
0.71,-0.99,0.3960043087285846
0.72,-0.99,0.41062320040174005
0.73,-0.99,0.4236215498988053
0.74,-0.99,0.43494805867269715
0.75,-0.99,0.44455802616787415
0.76,-0.99,0.45241352623300973
0.77,-0.99,0.4584835567981834
0.78,-0.99,0.4627441622258871
0.79,-0.99,0.4651785278529841
0.8,-0.99,0.465777046350499
0.81,-0.99,0.46453735563936005
0.8200000000000001,-0.99,0.4614643482124428
0.8300000000000001,-0.99,0.45657015182613814
0.8400000000000001,-0.99,0.44987408163763676
0.8500000000000001,-0.99,0.4414025639768297
0.8600000000000001,-0.99,0.4311890320536555
0.8700000000000001,-0.99,0.4192737940124963
0.8800000000000001,-0.99,0.40570387385434536
0.8900000000000001,-0.99,0.3905328258545611
0.9000000000000001,-0.99,0.37382052320860554
0.9100000000000001,-0.99,0.3556329217398977
0.9199999999999999,-0.99,0.33604179960230957
0.9299999999999999,-0.99,0.31512447400458615
0.94,-0.99,0.29296349607464445
0.95,-0.99,0.26964632506798636
0.96,-0.99,0.24526498320597265
0.97,-0.99,0.21991569250615728
0.98,-0.99,0.19369849503794334
0.99,-0.99,0.16671685810223952
1.0,-0.99,0.13907726589329356

-1.0,-0.98,0.108335709507177
-0.99,-0.98,0.08226270518477495
-0.98,-0.98,0.055865047547263756
-0.97,-0.98,0.029246916089396002
-0.96,-0.98,0.002513360415368397
-0.95,-0.98,-0.024230114343973465
-0.94,-0.98,-0.05087796391168603
-0.9299999999999999,-0.98,-0.07732502139976985
-0.92,-0.98,-0.10346691235483069
-0.91,-0.98,-0.12920046667636298
-0.9,-0.98,-0.15442412578200224
-0.89,-0.98,-0.1790383434128522
-0.88,-0.98,-0.2029459784970904
-0.87,-0.98,-0.22605267852139865
-0.86,-0.98,-0.24826725189722817
-0.85,-0.98,-0.2695020278523378
-0.84,-0.98,-0.28967320242727934
-0.83,-0.98,-0.3087011692113381
-0.8200000000000001,-0.98,-0.3265108335126685
-0.81,-0.98,-0.3430319087227355
-0.8,-0.98,-0.3581991937054457
-0.79,-0.98,-0.37195283011624586
-0.78,-0.98,-0.38423853863566104
-0.77,-0.98,-0.3950078331849721
-0.76,-0.98,-0.40421821227861526
-0.75,-0.98,-0.4118333267581298
-0.74,-0.98,-0.4178231232456802
-0.73,-0.98,-0.4221639627510073
-0.72,-0.98,-0.4248387139637255
-0.71,-0.98,-0.4258368208627744
-0.7,-0.98,-0.4251543443762159
-0.69,-0.98,-0.4227939779269486
-0.6799999999999999,-0.98,-0.41876503680299915
-0.6699999999999999,-0.98,-0.41308342139433496
-0.6599999999999999,-0.98,-0.4057715544412914
-0.6499999999999999,-0.98,-0.39685829254225774
-0.64,-0.98,-0.38637881226986764
-0.63,-0.98,-0.3743744713451366
-0.62,-0.98,-0.3608926454174334
-0.61,-0.98,-0.3459865410944337
-0.6,-0.98,-0.3297149859599497
-0.59,-0.98,-0.31214219640833013
-0.5800000000000001,-0.98,-0.2933375242116921
-0.5700000000000001,-0.98,-0.2733751828201575
-0.56,-0.98,-0.25233395447527274
-0.55,-0.98,-0.23029687929249237
-0.54,-0.98,-0.20735092753978068
-0.53,-0.98,-0.18358665640569746
-0.52,-0.98,-0.1590978526115461
-0.51,-0.98,-0.13398116227803186
-0.5,-0.98,-0.10833570950717705
-0.49,-0.98,-0.08226270518477502
-0.48,-0.98,-0.05586504754726386
-0.47,-0.98,-0.02924691608939617
-0.45999999999999996,-0.98,-0.0025133604153685252
-0.44999999999999996,-0.98,0.02423011434397336
-0.43999999999999995,-0.98,0.050877963911685864
-0.42999999999999994,-0.98,0.07732502139976972
-0.42000000000000004,-0.98,0.10346691235483063
-0.41000000000000003,-0.98,0.12920046667636287
-0.4,-0.98,0.15442412578200215
-0.39,-0.98,0.17903834341285227
-0.38,-0.98,0.20294597849709028
-0.37,-0.98,0.22605267852139851
-0.36,-0.98,0.24826725189722823
-0.35,-0.98,0.2695020278523378
-0.33999999999999997,-0.98,0.2896732024272793
-0.32999999999999996,-0.98,0.3087011692113379
-0.31999999999999995,-0.98,0.3265108335126685
-0.30999999999999994,-0.98,0.3430319087227353
-0.29999999999999993,-0.98,0.3581991937054455
-0.29000000000000004,-0.98,0.37195283011624575
-0.28,-0.98,0.38423853863566143
-0.27,-0.98,0.3950078331849723
-0.26,-0.98,0.4042182122786155
-0.25,-0.98,0.4118333267581299
-0.24,-0.98,0.41782312324568033
-0.22999999999999998,-0.98,0.4221639627510075
-0.21999999999999997,-0.98,0.42483871396372513
-0.20999999999999996,-0.98,0.42583682086277413
-0.19999999999999996,-0.98,0.425154344376216
-0.18999999999999995,-0.98,0.4227939779269486
-0.17999999999999994,-0.98,0.41876503680299915
-0.16999999999999993,-0.98,0.41308342139433524
-0.16000000000000003,-0.98,0.4057715544412916
-0.15000000000000002,-0.98,0.3968582925422579
-0.14,-0.98,0.38637881226986753
-0.13,-0.98,0.37437447134513685
-0.12,-0.98,0.3608926454174336
-0.10999999999999999,-0.98,0.34598654109443383
-0.09999999999999998,-0.98,0.3297149859599496
-0.08999999999999997,-0.98,0.31214219640833013
-0.07999999999999996,-0.98,0.293337524211692
-0.06999999999999995,-0.98,0.27337518282015766
-0.05999999999999994,-0.98,0.25233395447527274
-0.04999999999999993,-0.98,0.23029687929249237
-0.040000000000000036,-0.98,0.20735092753978068
-0.030000000000000027,-0.98,0.1835866564056976
-0.020000000000000018,-0.98,0.15909785261154605
-0.010000000000000009,-0.98,0.13398116227803192
0.0,-0.98,0.10833570950717705
0.010000000000000009,-0.98,0.08226270518477499
0.020000000000000018,-0.98,0.05586504754726383
0.030000000000000027,-0.98,0.029246916089396103
0.040000000000000036,-0.98,0.00251336041536852
0.050000000000000044,-0.98,-0.024230114343973385
0.06000000000000005,-0.98,-0.050877963911685975
0.07000000000000006,-0.98,-0.0773250213997698
0.08000000000000007,-0.98,-0.10346691235483069
0.09000000000000008,-0.98,-0.12920046667636292
0.10000000000000009,-0.98,-0.15442412578200226
0.1100000000000001,-0.98,-0.17903834341285224
0.1200000000000001,-0.98,-0.20294597849709028
0.13000000000000012,-0.98,-0.2260526785213986
0.14000000000000012,-0.98,-0.2482672518972281
0.15000000000000013,-0.98,-0.269502027852338
0.15999999999999992,-0.98,-0.2896732024272791
0.16999999999999993,-0.98,-0.30870116921133794
0.17999999999999994,-0.98,-0.32651083351266863
0.18999999999999995,-0.98,-0.3430319087227353
0.19999999999999996,-0.98,-0.35819919370544573
0.20999999999999996,-0.98,-0.37195283011624564
0.21999999999999997,-0.98,-0.3842385386356613
0.22999999999999998,-0.98,-0.3950078331849721
0.24,-0.98,-0.4042182122786152
0.25,-0.98,-0.4118333267581298
0.26,-0.98,-0.4178231232456804
0.27,-0.98,-0.42216396275100765
0.28,-0.98,-0.4248387139637253
0.29000000000000004,-0.98,-0.42583682086277413
0.30000000000000004,-0.98,-0.42515434437621585
0.31000000000000005,-0.98,-0.42279397792694884
0.32000000000000006,-0.98,-0.41876503680299904
0.33000000000000007,-0.98,-0.4130834213943351
0.3400000000000001,-0.98,-0.40577155444129154
0.3500000000000001,-0.98,-0.396858292542258
0.3600000000000001,-0.98,-0.3863788122698676
0.3700000000000001,-0.98,-0.3743744713451367
0.3800000000000001,-0.98,-0.3608926454174333
0.3900000000000001,-0.98,-0.34598654109443383
0.40000000000000013,-0.98,-0.32971498595994964
0.4099999999999999,-0.98,-0.3121421964083302
0.41999999999999993,-0.98,-0.293337524211692
0.42999999999999994,-0.98,-0.2733751828201575
0.43999999999999995,-0.98,-0.25233395447527274
0.44999999999999996,-0.98,-0.23029687929249237
0.45999999999999996,-0.98,-0.20735092753978068
0.47,-0.98,-0.18358665640569727
0.48,-0.98,-0.1590978526115461
0.49,-0.98,-0.13398116227803183
0.5,-0.98,-0.10833570950717707
0.51,-0.98,-0.08226270518477494
0.52,-0.98,-0.05586504754726377
0.53,-0.98,-0.029246916089396103
0.54,-0.98,-0.002513360415368461
0.55,-0.98,0.02423011434397345
0.56,-0.98,0.05087796391168599
0.5700000000000001,-0.98,0.0773250213997698
0.5800000000000001,-0.98,0.10346691235483069
0.5900000000000001,-0.98,0.12920046667636298
0.6000000000000001,-0.98,0.15442412578200226
0.6100000000000001,-0.98,0.17903834341285232
0.6200000000000001,-0.98,0.20294597849709034
0.6300000000000001,-0.98,0.22605267852139865
0.6400000000000001,-0.98,0.24826725189722834
0.6500000000000001,-0.98,0.26950202785233784
0.6600000000000001,-0.98,0.2896732024272792
0.6699999999999999,-0.98,0.308701169211338
0.6799999999999999,-0.98,0.3265108335126684
0.69,-0.98,0.34303190872273526
0.7,-0.98,0.35819919370544556
0.71,-0.98,0.3719528301162458
0.72,-0.98,0.38423853863566126
0.73,-0.98,0.3950078331849724
0.74,-0.98,0.40421821227861543
0.75,-0.98,0.41183332675813
0.76,-0.98,0.4178231232456803
0.77,-0.98,0.42216396275100737
0.78,-0.98,0.4248387139637253
0.79,-0.98,0.4258368208627743
0.8,-0.98,0.42515434437621613
0.81,-0.98,0.42279397792694867
0.8200000000000001,-0.98,0.41876503680299915
0.8300000000000001,-0.98,0.41308342139433507
0.8400000000000001,-0.98,0.40577155444129165
0.8500000000000001,-0.98,0.3968582925422581
0.8600000000000001,-0.98,0.386378812269868
0.8700000000000001,-0.98,0.3743744713451368
0.8800000000000001,-0.98,0.36089264541743343
0.8900000000000001,-0.98,0.34598654109443383
0.9000000000000001,-0.98,0.32971498595994975
0.9100000000000001,-0.98,0.3121421964083303
0.9199999999999999,-0.98,0.29333752421169196
0.9299999999999999,-0.98,0.27337518282015744
0.94,-0.98,0.2523339544752729
0.95,-0.98,0.23029687929249243
0.96,-0.98,0.20735092753978052
0.97,-0.98,0.1835866564056973
0.98,-0.98,0.15909785261154602
0.99,-0.98,0.13398116227803183
1.0,-0.98,0.108335709507177

-1.0,-0.97,0.07716660156951322
-0.99,-0.97,0.05331195780021497
-0.98,-0.97,0.029246916089396
-0.97,-0.97,0.005066450162417198
-0.96,-0.97,-0.019134010728711726
-0.95,-0.97,-0.043258958420992484
-0.94,-0.97,-0.06721318276752378
-0.9299999999999999,-0.97,-0.09090214738845394
-0.92,-0.97,-0.11423236276288272
-0.91,-0.97,-0.13711175518928875
-0.9,-0.97,-0.1594500301583652
-0.89,-0.97,-0.1811590287041962
-0.88,-0.97,-0.2021530753274193
-0.87,-0.97,-0.22234931611728018
-0.86,-0.97,-0.24166804573816608
-0.85,-0.97,-0.2600330219901516
-0.84,-0.97,-0.2773717667021295
-0.83,-0.97,-0.2936158517700402
-0.8200000000000001,-0.97,-0.30870116921133806
-0.81,-0.97,-0.32256818416990757
-0.8,-0.97,-0.33516216987294406
-0.79,-0.97,-0.34643342361252205
-0.78,-0.97,-0.3563374628994781
-0.77,-0.97,-0.3648352010154713
-0.76,-0.97,-0.371893101270405
-0.75,-0.97,-0.37748330935642144
-0.74,-0.97,-0.38158376327612753
-0.73,-0.97,-0.38417828041122243
-0.72,-0.97,-0.3852566213878947
-0.71,-0.97,-0.38481453048695713
-0.7,-0.97,-0.38285375243922387
-0.69,-0.97,-0.3793820255398551
-0.6799999999999999,-0.97,-0.37441305110884077
-0.6699999999999999,-0.97,-0.36796643941815244
-0.6599999999999999,-0.97,-0.360067632298956
-0.6499999999999999,-0.97,-0.3507478027343296
-0.64,-0.97,-0.34004373183373926
-0.63,-0.97,-0.3279976636748051
-0.62,-0.97,-0.31465713858522515
-0.61,-0.97,-0.300074805522822
-0.6,-0.97,-0.2843082142941584
-0.59,-0.97,-0.2674195884317442
-0.5800000000000001,-0.97,-0.24947557962617817
-0.5700000000000001,-0.97,-0.2305470046823786
-0.56,-0.97,-0.21070856603800536
-0.55,-0.97,-0.1900385569470672
-0.54,-0.97,-0.1686185524922172
-0.53,-0.97,-0.1465330876451693
-0.52,-0.97,-0.1238693236457858
-0.51,-0.97,-0.1007167040164835
-0.5,-0.97,-0.07716660156951327
-0.49,-0.97,-0.05331195780021507
-0.48,-0.97,-0.029246916089396148
-0.47,-0.97,-0.005066450162417312
-0.45999999999999996,-0.97,0.019134010728711626
-0.44999999999999996,-0.97,0.043258958420992345
-0.43999999999999995,-0.97,0.06721318276752367
-0.42999999999999994,-0.97,0.09090214738845387
-0.42000000000000004,-0.97,0.1142323627628826
-0.41000000000000003,-0.97,0.13711175518928867
-0.4,-0.97,0.15945003015836523
-0.39,-0.97,0.18115902870419612
-0.38,-0.97,0.2021530753274192
-0.37,-0.97,0.22234931611728023
-0.36,-0.97,0.24166804573816608
-0.35,-0.97,0.2600330219901516
-0.33999999999999997,-0.97,0.27737176670212926
-0.32999999999999996,-0.97,0.2936158517700403
-0.31999999999999995,-0.97,0.30870116921133783
-0.30999999999999994,-0.97,0.3225681841699075
-0.29999999999999993,-0.97,0.3351621698729439
-0.29000000000000004,-0.97,0.3464334236125223
-0.28,-0.97,0.35633746289947815
-0.27,-0.97,0.3648352010154714
-0.26,-0.97,0.3718931012704051
-0.25,-0.97,0.3774833093564216
-0.24,-0.97,0.38158376327612775
-0.22999999999999998,-0.97,0.3841782804112221
-0.21999999999999997,-0.97,0.3852566213878944
-0.20999999999999996,-0.97,0.38481453048695724
-0.19999999999999996,-0.97,0.38285375243922387
-0.18999999999999995,-0.97,0.379382025539855
-0.17999999999999994,-0.97,0.3744130511088411
-0.16999999999999993,-0.97,0.3679664394181525
-0.16000000000000003,-0.97,0.36006763229895605
-0.15000000000000002,-0.97,0.35074780273432943
-0.14,-0.97,0.34004373183373937
-0.13,-0.97,0.3279976636748052
-0.12,-0.97,0.3146571385852252
-0.10999999999999999,-0.97,0.3000748055228219
-0.09999999999999998,-0.97,0.2843082142941584
-0.08999999999999997,-0.97,0.26741958843174396
-0.07999999999999996,-0.97,0.24947557962617825
-0.06999999999999995,-0.97,0.23054700468237854
-0.05999999999999994,-0.97,0.21070856603800536
-0.04999999999999993,-0.97,0.1900385569470672
-0.040000000000000036,-0.97,0.1686185524922173
-0.030000000000000027,-0.97,0.14653308764516929
-0.020000000000000018,-0.97,0.12386932364578584
-0.010000000000000009,-0.97,0.10071670401648351
0.0,-0.97,0.07716660156951326
0.010000000000000009,-0.97,0.05331195780021504
0.020000000000000018,-0.97,0.0292469160893961
0.030000000000000027,-0.97,0.005066450162417309
0.040000000000000036,-0.97,-0.019134010728711643
0.050000000000000044,-0.97,-0.043258958420992435
0.06000000000000005,-0.97,-0.06721318276752374
0.07000000000000006,-0.97,-0.0909021473884539
0.08000000000000007,-0.97,-0.11423236276288265
0.09000000000000008,-0.97,-0.1371117551892888
0.10000000000000009,-0.97,-0.15945003015836523
0.1100000000000001,-0.97,-0.18115902870419612
0.1200000000000001,-0.97,-0.20215307532741925
0.13000000000000012,-0.97,-0.22234931611728012
0.14000000000000012,-0.97,-0.24166804573816625
0.15000000000000013,-0.97,-0.26003302199015155
0.15999999999999992,-0.97,-0.27737176670212926
0.16999999999999993,-0.97,-0.29361585177004035
0.17999999999999994,-0.97,-0.3087011692113379
0.18999999999999995,-0.97,-0.3225681841699076
0.19999999999999996,-0.97,-0.33516216987294384
0.20999999999999996,-0.97,-0.3464334236125223
0.21999999999999997,-0.97,-0.35633746289947804
0.22999999999999998,-0.97,-0.3648352010154712
0.24,-0.97,-0.371893101270405
0.25,-0.97,-0.3774833093564216
0.26,-0.97,-0.38158376327612786
0.27,-0.97,-0.3841782804112222
0.28,-0.97,-0.3852566213878943
0.29000000000000004,-0.97,-0.38481453048695713
0.30000000000000004,-0.97,-0.38285375243922404
0.31000000000000005,-0.97,-0.379382025539855
0.32000000000000006,-0.97,-0.37441305110884104
0.33000000000000007,-0.97,-0.3679664394181525
0.3400000000000001,-0.97,-0.3600676322989561
0.3500000000000001,-0.97,-0.3507478027343295
0.3600000000000001,-0.97,-0.3400437318337392
0.3700000000000001,-0.97,-0.32799766367480504
0.3800000000000001,-0.97,-0.3146571385852252
0.3900000000000001,-0.97,-0.30007480552282195
0.40000000000000013,-0.97,-0.2843082142941584
0.4099999999999999,-0.97,-0.267419588431744
0.41999999999999993,-0.97,-0.2494755796261782
0.42999999999999994,-0.97,-0.23054700468237857
0.43999999999999995,-0.97,-0.21070856603800542
0.44999999999999996,-0.97,-0.19003855694706723
0.45999999999999996,-0.97,-0.16861855249221702
0.47,-0.97,-0.14653308764516937
0.48,-0.97,-0.12386932364578576
0.49,-0.97,-0.10071670401648353
0.5,-0.97,-0.07716660156951319
0.51,-0.97,-0.05331195780021498
0.52,-0.97,-0.029246916089396106
0.53,-0.97,-0.005066450162417253
0.54,-0.97,0.0191340107287117
0.55,-0.97,0.04325895842099245
0.56,-0.97,0.06721318276752372
0.5700000000000001,-0.97,0.09090214738845392
0.5800000000000001,-0.97,0.1142323627628827
0.5900000000000001,-0.97,0.1371117551892888
0.6000000000000001,-0.97,0.15945003015836529
0.6100000000000001,-0.97,0.18115902870419615