TITLE = "Solution" 
VARIABLES = "x", "y", "sol" 
ZONE STRANDID=1, SOLUTIONTIME= 1.6999999999999857, I= 201, J =201, DATAPACKING=POINT 
-1.0,-1.0,0.6599600937674832
-0.99,-1.0,0.6402041425944202
-0.98,-1.0,0.6179215981519881
-0.97,-1.0,0.593200399463176
-0.96,-1.0,0.5661381098051664
-0.95,-1.0,0.5368415316716552
-0.94,-1.0,0.5054262852722029
-0.9299999999999999,-1.0,0.4720163522320865
-0.92,-1.0,0.4367435862934686
-0.91,-1.0,0.3997471929489157
-0.9,-1.0,0.3611731800609145
-0.89,-1.0,0.321173781635543
-0.88,-1.0,0.27990685702439966
-0.87,-1.0,0.23753526792586044
-0.86,-1.0,0.19422623564435898
-0.85,-1.0,0.1501506811442958
-0.84,-1.0,0.10548255050307728
-0.83,-1.0,0.0603981284254166
-0.8200000000000001,-1.0,0.015075342528140735
-0.81,-1.0,-0.030306938858824756
-0.8,-1.0,-0.07556961260403766
-0.79,-1.0,-0.12053404761277446
-0.78,-1.0,-0.1650227898023522
-0.77,-1.0,-0.20886026243232092
-0.76,-1.0,-0.251873459025647
-0.75,-1.0,-0.2938926261462368
-0.74,-1.0,-0.3347519333381963
-0.73,-1.0,-0.37429012758288094
-0.72,-1.0,-0.41235116969089014
-0.71,-1.0,-0.44878485011745917
-0.7,-1.0,-0.48344738177090996
-0.69,-1.0,-0.5162019674746104
-0.6799999999999999,-1.0,-0.5469193398429348
-0.6699999999999999,-1.0,-0.5754782714405786
-0.6599999999999999,-1.0,-0.6017660532118603
-0.6499999999999999,-1.0,-0.6256789392918727
-0.64,-1.0,-0.6471225564440178
-0.63,-1.0,-0.6660122765080526
-0.62,-1.0,-0.6822735503887765
-0.61,-1.0,-0.695842202267251
-0.6,-1.0,-0.7066646828734408
-0.59,-1.0,-0.7146982808207129
-0.5800000000000001,-1.0,-0.7199112911681718
-0.5700000000000001,-1.0,-0.7222831405455727
-0.56,-1.0,-0.72180446834702
-0.55,-1.0,-0.718477163672995
-0.54,-1.0,-0.7123143578749472
-0.53,-1.0,-0.7033403727318415
-0.52,-1.0,-0.6915906244632144
-0.51,-1.0,-0.677111483957533
-0.5,-1.0,-0.6599600937674828
-0.49,-1.0,-0.6402041425944196
-0.48,-1.0,-0.6179215981519885
-0.47,-1.0,-0.5932003994631757
-0.45999999999999996,-1.0,-0.5661381098051662
-0.44999999999999996,-1.0,-0.5368415316716549
-0.43999999999999995,-1.0,-0.5054262852722027
-0.42999999999999994,-1.0,-0.4720163522320862
-0.42000000000000004,-1.0,-0.4367435862934688
-0.41000000000000003,-1.0,-0.39974719294891603
-0.4,-1.0,-0.3611731800609145
-0.39,-1.0,-0.3211737816355429
-0.38,-1.0,-0.2799068570243999
-0.37,-1.0,-0.23753526792586033
-0.36,-1.0,-0.19422623564435892
-0.35,-1.0,-0.15015068114429586
-0.33999999999999997,-1.0,-0.10548255050307745
-0.32999999999999996,-1.0,-0.06039812842541649
-0.31999999999999995,-1.0,-0.01507534252814068
-0.30999999999999994,-1.0,0.030306938858824795
-0.29999999999999993,-1.0,0.07556961260403772
-0.29000000000000004,-1.0,0.12053404761277461
-0.28,-1.0,0.1650227898023521
-0.27,-1.0,0.20886026243232103
-0.26,-1.0,0.2518734590256471
-0.25,-1.0,0.2938926261462369
-0.24,-1.0,0.3347519333381964
-0.22999999999999998,-1.0,0.37429012758288155
-0.21999999999999997,-1.0,0.4123511696908905
-0.20999999999999996,-1.0,0.4487848501174596
-0.19999999999999996,-1.0,0.4834473817709104
-0.18999999999999995,-1.0,0.5162019674746103
-0.17999999999999994,-1.0,0.546919339842935
-0.16999999999999993,-1.0,0.5754782714405788
-0.16000000000000003,-1.0,0.6017660532118598
-0.15000000000000002,-1.0,0.6256789392918727
-0.14,-1.0,0.6471225564440182
-0.13,-1.0,0.6660122765080527
-0.12,-1.0,0.6822735503887765
-0.10999999999999999,-1.0,0.6958422022672517
-0.09999999999999998,-1.0,0.7066646828734409
-0.08999999999999997,-1.0,0.7146982808207124
-0.07999999999999996,-1.0,0.7199112911681714
-0.06999999999999995,-1.0,0.7222831405455726
-0.05999999999999994,-1.0,0.72180446834702
-0.04999999999999993,-1.0,0.7184771636729954
-0.040000000000000036,-1.0,0.712314357874947
-0.030000000000000027,-1.0,0.7033403727318417
-0.020000000000000018,-1.0,0.6915906244632141
-0.010000000000000009,-1.0,0.677111483957533
0.0,-1.0,0.6599600937674829
0.010000000000000009,-1.0,0.6402041425944199
0.020000000000000018,-1.0,0.617921598151988
0.030000000000000027,-1.0,0.5932003994631757
0.040000000000000036,-1.0,0.5661381098051662
0.050000000000000044,-1.0,0.5368415316716552
0.06000000000000005,-1.0,0.5054262852722028
0.07000000000000006,-1.0,0.4720163522320862
0.08000000000000007,-1.0,0.43674358629346893
0.09000000000000008,-1.0,0.3997471929489159
0.10000000000000009,-1.0,0.3611731800609147
0.1100000000000001,-1.0,0.3211737816355433
0.1200000000000001,-1.0,0.2799068570243999
0.13000000000000012,-1.0,0.23753526792586055
0.14000000000000012,-1.0,0.19422623564435906
0.15000000000000013,-1.0,0.15015068114429586
0.15999999999999992,-1.0,0.1054825505030774
0.16999999999999993,-1.0,0.06039812842541661
0.17999999999999994,-1.0,0.01507534252814087
0.18999999999999995,-1.0,-0.030306938858824548
0.19999999999999996,-1.0,-0.07556961260403758
0.20999999999999996,-1.0,-0.12053404761277452
0.21999999999999997,-1.0,-0.16502278980235194
0.22999999999999998,-1.0,-0.208860262432321
0.24,-1.0,-0.251873459025647
0.25,-1.0,-0.2938926261462367
0.26,-1.0,-0.33475193333819614
0.27,-1.0,-0.3742901275828813
0.28,-1.0,-0.41235116969089025
0.29000000000000004,-1.0,-0.4487848501174595
0.30000000000000004,-1.0,-0.4834473817709102
0.31000000000000005,-1.0,-0.5162019674746102
0.32000000000000006,-1.0,-0.5469193398429351
0.33000000000000007,-1.0,-0.5754782714405787
0.3400000000000001,-1.0,-0.6017660532118598
0.3500000000000001,-1.0,-0.6256789392918727
0.3600000000000001,-1.0,-0.647122556444018
0.3700000000000001,-1.0,-0.666012276508053
0.3800000000000001,-1.0,-0.6822735503887767
0.3900000000000001,-1.0,-0.6958422022672515
0.40000000000000013,-1.0,-0.7066646828734406
0.4099999999999999,-1.0,-0.7146982808207126
0.41999999999999993,-1.0,-0.7199112911681713
0.42999999999999994,-1.0,-0.7222831405455727
0.43999999999999995,-1.0,-0.7218044683470204
0.44999999999999996,-1.0,-0.7184771636729954
0.45999999999999996,-1.0,-0.7123143578749468
0.47,-1.0,-0.7033403727318407
0.48,-1.0,-0.6915906244632148
0.49,-1.0,-0.6771114839575332
0.5,-1.0,-0.659960093767483
0.51,-1.0,-0.6402041425944199
0.52,-1.0,-0.6179215981519885
0.53,-1.0,-0.5932003994631756
0.54,-1.0,-0.5661381098051663
0.55,-1.0,-0.5368415316716555
0.56,-1.0,-0.5054262852722026
0.5700000000000001,-1.0,-0.4720163522320863
0.5800000000000001,-1.0,-0.4367435862934689
0.5900000000000001,-1.0,-0.3997471929489159
0.6000000000000001,-1.0,-0.3611731800609145
0.6100000000000001,-1.0,-0.321173781635543
0.6200000000000001,-1.0,-0.2799068570243998
0.6300000000000001,-1.0,-0.2375352679258605
0.6400000000000001,-1.0,-0.19422623564435898
0.6500000000000001,-1.0,-0.15015068114429586
0.6600000000000001,-1.0,-0.10548255050307737
0.6699999999999999,-1.0,-0.06039812842541667
0.6799999999999999,-1.0,-0.015075342528140778
0.69,-1.0,0.0303069388588246
0.7,-1.0,0.07556961260403766
0.71,-1.0,0.1205340476127745
0.72,-1.0,0.16502278980235194
0.73,-1.0,0.20886026243232098
0.74,-1.0,0.2518734590256469
0.75,-1.0,0.2938926261462368
0.76,-1.0,0.33475193333819653
0.77,-1.0,0.3742901275828814
0.78,-1.0,0.41235116969089025
0.79,-1.0,0.4487848501174593
0.8,-1.0,0.48344738177090996
0.81,-1.0,0.5162019674746101
0.8200000000000001,-1.0,0.5469193398429351
0.8300000000000001,-1.0,0.5754782714405786
0.8400000000000001,-1.0,0.60176605321186
0.8500000000000001,-1.0,0.6256789392918726
0.8600000000000001,-1.0,0.647122556444018
0.8700000000000001,-1.0,0.6660122765080528
0.8800000000000001,-1.0,0.6822735503887767
0.8900000000000001,-1.0,0.6958422022672516
0.9000000000000001,-1.0,0.7066646828734411
0.9100000000000001,-1.0,0.7146982808207127
0.9199999999999999,-1.0,0.7199112911681711
0.9299999999999999,-1.0,0.7222831405455733
0.94,-1.0,0.7218044683470202
0.95,-1.0,0.7184771636729956
0.96,-1.0,0.7123143578749469
0.97,-1.0,0.7033403727318409
0.98,-1.0,0.6915906244632141
0.99,-1.0,0.6771114839575331
1.0,-1.0,0.6599600937674832

-1.0,-0.99,0.64020414259442
-0.99,-0.99,0.619935910290715
-0.98,-0.99,0.59722107417087
-0.97,-0.99,0.5721492793156276
-0.96,-0.99,0.5448194726450679
-0.95,-0.99,0.5153395124203197
-0.94,-0.99,0.4838257425762765
-0.9299999999999999,-0.99,0.4504025335652407
-0.92,-0.99,0.4152017915235674
-0.91,-0.99,0.37836243769840605
-0.9,-0.99,0.3400298601890042
-0.89,-0.99,0.30035534016630283
-0.88,-0.99,0.2594954548352678
-0.87,-0.99,0.21761145949619426
-0.86,-0.99,0.17486865114370823
-0.85,-0.99,0.1314357161150456
-0.84,-0.99,0.08748406436214382
-0.83,-0.99,0.04318715297487166
-0.8200000000000001,-0.99,-0.0012801983748588226
-0.81,-0.99,-0.04574249736647061
-0.8,-0.99,-0.09002427161873623
-0.79,-0.99,-0.1339507611991004
-0.78,-0.99,-0.17734860832129312
-0.77,-0.99,-0.22004654150931402
-0.76,-0.99,-0.2618760515277
-0.75,-0.99,-0.30267205641049355
-0.74,-0.99,-0.34227355296434425
-0.73,-0.99,-0.3805242521745571
-0.72,-0.99,-0.4172731960064313
-0.71,-0.99,-0.4523753531676581
-0.7,-0.99,-0.4856921914805722
-0.69,-0.99,-0.5170922246053677
-0.6799999999999999,-0.99,-0.5464515309566127
-0.6699999999999999,-0.99,-0.5736542427651294
-0.6599999999999999,-0.99,-0.5985930033551455
-0.6499999999999999,-0.99,-0.6211693908320495
-0.64,-0.99,-0.64129430650864
-0.63,-0.99,-0.658888326536941
-0.62,-0.99,-0.6738820153578436
-0.61,-0.99,-0.6862161997315375
-0.6,-0.99,-0.6958422022672517
-0.59,-0.99,-0.7027220335306801
-0.5800000000000001,-0.99,-0.7068285419709213
-0.5700000000000001,-0.99,-0.7081455210752479
-0.56,-0.99,-0.7066677733288049
-0.55,-0.99,-0.7024011307268303
-0.54,-0.99,-0.6953624317584287
-0.53,-0.99,-0.6855794549527532
-0.52,-0.99,-0.6730908092498391
-0.51,-0.99,-0.657945781628756
-0.5,-0.99,-0.6402041425944198
-0.49,-0.99,-0.6199359102907154
-0.48,-0.99,-0.5972210741708697
-0.47,-0.99,-0.5721492793156275
-0.45999999999999996,-0.99,-0.5448194726450678
-0.44999999999999996,-0.99,-0.5153395124203194
-0.43999999999999995,-0.99,-0.4838257425762763
-0.42999999999999994,-0.99,-0.4504025335652408
-0.42000000000000004,-0.99,-0.41520179152356773
-0.41000000000000003,-0.99,-0.37836243769840616
-0.4,-0.99,-0.34002986018900416
-0.39,-0.99,-0.30035534016630316
-0.38,-0.99,-0.25949545483526776
-0.37,-0.99,-0.21761145949619415
-0.36,-0.99,-0.17486865114370836
-0.35,-0.99,-0.1314357161150458
-0.33999999999999997,-0.99,-0.0874840643621437
-0.32999999999999996,-0.99,-0.043187152974871613
-0.31999999999999995,-0.99,0.0012801983748588347
-0.30999999999999994,-0.99,0.04574249736647067
-0.29999999999999993,-0.99,0.0900242716187364
-0.29000000000000004,-0.99,0.13395076119910035
-0.28,-0.99,0.17734860832129323
-0.27,-0.99,0.22004654150931413
-0.26,-0.99,0.2618760515277001
-0.25,-0.99,0.30267205641049366
-0.24,-0.99,0.3422735529643448
-0.22999999999999998,-0.99,0.38052425217455743
-0.21999999999999997,-0.99,0.41727319600643165
-0.20999999999999996,-0.99,0.45237535316765864
-0.19999999999999996,-0.99,0.48569219148057213
-0.18999999999999995,-0.99,0.5170922246053679
-0.17999999999999994,-0.99,0.5464515309566131
-0.16999999999999993,-0.99,0.5736542427651288
-0.16000000000000003,-0.99,0.5985930033551456
-0.15000000000000002,-0.99,0.6211693908320499
-0.14,-0.99,0.6412943065086402
-0.13,-0.99,0.6588883265369412
-0.12,-0.99,0.6738820153578442
-0.10999999999999999,-0.99,0.6862161997315377
-0.09999999999999998,-0.99,0.695842202267251
-0.08999999999999997,-0.99,0.7027220335306799
-0.07999999999999996,-0.99,0.706828541970921
-0.06999999999999995,-0.99,0.7081455210752479
-0.05999999999999994,-0.99,0.7066677733288053
-0.04999999999999993,-0.99,0.7024011307268303
-0.040000000000000036,-0.99,0.6953624317584288
-0.030000000000000027,-0.99,0.6855794549527529
-0.020000000000000018,-0.99,0.6730908092498391
-0.010000000000000009,-0.99,0.6579457816287559
0.0,-0.99,0.64020414259442
0.010000000000000009,-0.99,0.6199359102907149
0.020000000000000018,-0.99,0.5972210741708698
0.030000000000000027,-0.99,0.5721492793156273
0.040000000000000036,-0.99,0.544819472645068
0.050000000000000044,-0.99,0.5153395124203196
0.06000000000000005,-0.99,0.4838257425762763
0.07000000000000006,-0.99,0.45040253356524096
0.08000000000000007,-0.99,0.4152017915235675
0.09000000000000008,-0.99,0.3783624376984063
0.10000000000000009,-0.99,0.3400298601890045
0.1100000000000001,-0.99,0.30035534016630305
0.1200000000000001,-0.99,0.259495454835268
0.13000000000000012,-0.99,0.21761145949619431
0.14000000000000012,-0.99,0.1748686511437083
0.15000000000000013,-0.99,0.13143571611504568
0.15999999999999992,-0.99,0.08748406436214383
0.16999999999999993,-0.99,0.043187152974871815
0.17999999999999994,-0.99,-0.0012801983748586057
0.18999999999999995,-0.99,-0.045742497366470514
0.19999999999999996,-0.99,-0.09002427161873625
0.20999999999999996,-0.99,-0.13395076119910018
0.21999999999999997,-0.99,-0.1773486083212932
0.22999999999999998,-0.99,-0.220046541509314
0.24,-0.99,-0.2618760515276999
0.25,-0.99,-0.3026720564104934
0.26,-0.99,-0.3422735529643446
0.27,-0.99,-0.3805242521745572
0.28,-0.99,-0.41727319600643165
0.29000000000000004,-0.99,-0.4523753531676583
0.30000000000000004,-0.99,-0.485692191480572
0.31000000000000005,-0.99,-0.517092224605368
0.32000000000000006,-0.99,-0.5464515309566127
0.33000000000000007,-0.99,-0.5736542427651289
0.3400000000000001,-0.99,-0.5985930033551454
0.3500000000000001,-0.99,-0.6211693908320497
0.3600000000000001,-0.99,-0.6412943065086405
0.3700000000000001,-0.99,-0.6588883265369414
0.3800000000000001,-0.99,-0.6738820153578442
0.3900000000000001,-0.99,-0.6862161997315375
0.40000000000000013,-0.99,-0.6958422022672514
0.4099999999999999,-0.99,-0.7027220335306796
0.41999999999999993,-0.99,-0.7068285419709213
0.42999999999999994,-0.99,-0.7081455210752483
0.43999999999999995,-0.99,-0.7066677733288054
0.44999999999999996,-0.99,-0.7024011307268299
0.45999999999999996,-0.99,-0.6953624317584282
0.47,-0.99,-0.6855794549527534
0.48,-0.99,-0.6730908092498393
0.49,-0.99,-0.6579457816287562
0.5,-0.99,-0.6402041425944199
0.51,-0.99,-0.6199359102907154
0.52,-0.99,-0.5972210741708696
0.53,-0.99,-0.5721492793156275
0.54,-0.99,-0.5448194726450681
0.55,-0.99,-0.5153395124203195
0.56,-0.99,-0.4838257425762764
0.5700000000000001,-0.99,-0.45040253356524096
0.5800000000000001,-0.99,-0.4152017915235676
0.5900000000000001,-0.99,-0.37836243769840605
0.6000000000000001,-0.99,-0.34002986018900433
0.6100000000000001,-0.99,-0.30035534016630305
0.6200000000000001,-0.99,-0.2594954548352679
0.6300000000000001,-0.99,-0.2176114594961942
0.6400000000000001,-0.99,-0.1748686511437083
0.6500000000000001,-0.99,-0.13143571611504568
0.6600000000000001,-0.99,-0.08748406436214387
0.6699999999999999,-0.99,-0.043187152974871704
0.6799999999999999,-0.99,0.0012801983748586404
0.69,-0.99,0.045742497366470604
0.7,-0.99,0.09002427161873626
0.71,-0.99,0.13395076119910018
0.72,-0.99,0.17734860832129318
0.73,-0.99,0.2200465415093139
0.74,-0.99,0.2618760515277
0.75,-0.99,0.3026720564104937
0.76,-0.99,0.3422735529643446
0.77,-0.99,0.3805242521745572
0.78,-0.99,0.4172731960064314
0.79,-0.99,0.4523753531676582
0.8,-0.99,0.485692191480572
0.81,-0.99,0.517092224605368
0.8200000000000001,-0.99,0.5464515309566128
0.8300000000000001,-0.99,0.573654242765129
0.8400000000000001,-0.99,0.5985930033551454
0.8500000000000001,-0.99,0.6211693908320498
0.8600000000000001,-0.99,0.6412943065086405
0.8700000000000001,-0.99,0.6588883265369414
0.8800000000000001,-0.99,0.6738820153578443
0.8900000000000001,-0.99,0.6862161997315378
0.9000000000000001,-0.99,0.6958422022672515
0.9100000000000001,-0.99,0.7027220335306794
0.9199999999999999,-0.99,0.7068285419709216
0.9299999999999999,-0.99,0.7081455210752479
0.94,-0.99,0.7066677733288056
0.95,-0.99,0.70240113072683
0.96,-0.99,0.6953624317584282
0.97,-0.99,0.685579454952753
0.98,-0.99,0.6730908092498392
0.99,-0.99,0.6579457816287564
1.0,-0.99,0.64020414259442

-1.0,-0.98,0.6179215981519881
-0.99,-0.98,0.59722107417087
-0.98,-0.98,0.5741635914543546
-0.97,-0.98,0.5488401473527618
-0.96,-0.98,0.5213506819307809
-0.95,-0.98,0.4918036835496893
-0.94,-0.98,0.46031576071335756
-0.9299999999999999,-0.98,0.42701118186775744
-0.92,-0.98,0.392021384970178
-0.91,-0.98,0.35548445876365586
-0.9,-0.98,0.3175445978037945
-0.89,-0.98,0.2783515333887291
-0.88,-0.98,0.23805994263809752
-0.87,-0.98,0.19682883805311568
-0.86,-0.98,0.15482093996688084
-0.85,-0.98,0.11220203436155629
-0.84,-0.98,0.06914031858683996
-0.83,-0.98,0.025805737561868387
-0.8200000000000001,-0.98,-0.017630686919739687
-0.81,-0.98,-0.0609975311347703
-0.8,-0.98,-0.10412364596153331
-0.79,-0.98,-0.1468388323272549
-0.78,-0.98,-0.18897451290606226
-0.77,-0.98,-0.23036439741667214
-0.76,-0.98,-0.2708451388941605
-0.75,-0.98,-0.31025697834580757
-0.74,-0.98,-0.3484443752468544
-0.73,-0.98,-0.38525662138789457
-0.72,-0.98,-0.4205484356513251
-0.71,-0.98,-0.45418053736954433
-0.7,-0.98,-0.4860201960021161
-0.69,-0.98,-0.5159417549625744
-0.6799999999999999,-0.98,-0.5438271275275625
-0.6699999999999999,-0.98,-0.5695662628711797
-0.6599999999999999,-0.98,-0.5930575803853186
-0.6499999999999999,-0.98,-0.6142083705719129
-0.64,-0.98,-0.6329351609249727
-0.63,-0.98,-0.6491640453584312
-0.62,-0.98,-0.6628309758797022
-0.61,-0.98,-0.6738820153578443
-0.6,-0.98,-0.6822735503887769
-0.59,-0.98,-0.6879724634174602
-0.5800000000000001,-0.98,-0.690956263437756
-0.5700000000000001,-0.98,-0.6912131747541533
-0.56,-0.98,-0.6887421834550584
-0.55,-0.98,-0.6835530414142386
-0.54,-0.98,-0.6756662278046364
-0.53,-0.98,-0.6651128682764264
-0.52,-0.98,-0.6519346121182947
-0.51,-0.98,-0.6361834678867258
-0.5,-0.98,-0.6179215981519884
-0.49,-0.98,-0.5972210741708696
-0.48,-0.98,-0.5741635914543545
-0.47,-0.98,-0.5488401473527618
-0.45999999999999996,-0.98,-0.5213506819307806
-0.44999999999999996,-0.98,-0.49180368354968906
-0.43999999999999995,-0.98,-0.46031576071335767
-0.42999999999999994,-0.98,-0.4270111818677579
-0.42000000000000004,-0.98,-0.3920213849701781
-0.41000000000000003,-0.98,-0.35548445876365586
-0.4,-0.98,-0.31754459780379485
-0.39,-0.98,-0.27835153338872903
-0.38,-0.98,-0.23805994263809735
-0.37,-0.98,-0.19682883805311582
-0.36,-0.98,-0.15482093996688107
-0.35,-0.98,-0.1122020343615562
-0.33999999999999997,-0.98,-0.06914031858683992
-0.32999999999999996,-0.98,-0.0258057375618684
-0.31999999999999995,-0.98,0.01763068691973975
-0.30999999999999994,-0.98,0.06099753113477045
-0.29999999999999993,-0.98,0.10412364596153328
-0.29000000000000004,-0.98,0.14683883232725495
-0.28,-0.98,0.18897451290606232
-0.27,-0.98,0.23036439741667222
-0.26,-0.98,0.2708451388941607
-0.25,-0.98,0.310256978345808
-0.24,-0.98,0.3484443752468548
-0.22999999999999998,-0.98,0.38525662138789496
-0.21999999999999997,-0.98,0.4205484356513256
-0.20999999999999996,-0.98,0.45418053736954433
-0.19999999999999996,-0.98,0.48602019600211616
-0.18999999999999995,-0.98,0.5159417549625748
-0.17999999999999994,-0.98,0.5438271275275619
-0.16999999999999993,-0.98,0.5695662628711797
-0.16000000000000003,-0.98,0.593057580385319
-0.15000000000000002,-0.98,0.614208370571913
-0.14,-0.98,0.6329351609249729
-0.13,-0.98,0.6491640453584318
-0.12,-0.98,0.6628309758797022
-0.10999999999999999,-0.98,0.6738820153578438
-0.09999999999999998,-0.98,0.6822735503887769
-0.08999999999999997,-0.98,0.68797246341746
-0.07999999999999996,-0.98,0.6909562634377562
-0.06999999999999995,-0.98,0.6912131747541536
-0.05999999999999994,-0.98,0.6887421834550582
-0.04999999999999993,-0.98,0.6835530414142388
-0.040000000000000036,-0.98,0.6756662278046361
-0.030000000000000027,-0.98,0.6651128682764265
-0.020000000000000018,-0.98,0.6519346121182948
-0.010000000000000009,-0.98,0.6361834678867262
0.0,-0.98,0.617921598151988
0.010000000000000009,-0.98,0.5972210741708697
0.020000000000000018,-0.98,0.5741635914543541
0.030000000000000027,-0.98,0.5488401473527619
0.040000000000000036,-0.98,0.5213506819307808
0.050000000000000044,-0.98,0.49180368354968906
0.06000000000000005,-0.98,0.4603157607133578
0.07000000000000006,-0.98,0.42701118186775766
0.08000000000000007,-0.98,0.39202138497017813
0.09000000000000008,-0.98,0.35548445876365614
0.10000000000000009,-0.98,0.3175445978037947
0.1100000000000001,-0.98,0.27835153338872914
0.1200000000000001,-0.98,0.23805994263809754
0.13000000000000012,-0.98,0.19682883805311574
0.14000000000000012,-0.98,0.15482093996688095
0.15000000000000013,-0.98,0.1122020343615563
0.15999999999999992,-0.98,0.06914031858684014
0.16999999999999993,-0.98,0.025805737561868602
0.17999999999999994,-0.98,-0.01763068691973956
0.18999999999999995,-0.98,-0.060997531134770286
0.19999999999999996,-0.98,-0.10412364596153312
0.20999999999999996,-0.98,-0.14683883232725492
0.21999999999999997,-0.98,-0.1889745129060622
0.22999999999999998,-0.98,-0.23036439741667203
0.24,-0.98,-0.27084513889416045
0.25,-0.98,-0.3102569783458078
0.26,-0.98,-0.34844437524685445
0.27,-0.98,-0.38525662138789496
0.28,-0.98,-0.4205484356513253
0.29000000000000004,-0.98,-0.45418053736954433
0.30000000000000004,-0.98,-0.48602019600211627
0.31000000000000005,-0.98,-0.5159417549625746
0.32000000000000006,-0.98,-0.5438271275275619
0.33000000000000007,-0.98,-0.5695662628711795
0.3400000000000001,-0.98,-0.5930575803853189
0.3500000000000001,-0.98,-0.6142083705719132
0.3600000000000001,-0.98,-0.6329351609249732
0.3700000000000001,-0.98,-0.6491640453584318
0.3800000000000001,-0.98,-0.6628309758797022
0.3900000000000001,-0.98,-0.673882015357844
0.40000000000000013,-0.98,-0.6822735503887764
0.4099999999999999,-0.98,-0.6879724634174601
0.41999999999999993,-0.98,-0.6909562634377566
0.42999999999999994,-0.98,-0.6912131747541538
0.43999999999999995,-0.98,-0.6887421834550579
0.44999999999999996,-0.98,-0.683553041414238
0.45999999999999996,-0.98,-0.6756662278046366
0.47,-0.98,-0.6651128682764265
0.48,-0.98,-0.651934612118295
0.49,-0.98,-0.6361834678867262
0.5,-0.98,-0.6179215981519885
0.51,-0.98,-0.5972210741708697
0.52,-0.98,-0.5741635914543542
0.53,-0.98,-0.548840147352762
0.54,-0.98,-0.5213506819307807
0.55,-0.98,-0.4918036835496892
0.56,-0.98,-0.4603157607133578
0.5700000000000001,-0.98,-0.42701118186775766
0.5800000000000001,-0.98,-0.39202138497017813
0.5900000000000001,-0.98,-0.355484458763656
0.6000000000000001,-0.98,-0.3175445978037946
0.6100000000000001,-0.98,-0.2783515333887292
0.6200000000000001,-0.98,-0.2380599426380974
0.6300000000000001,-0.98,-0.1968288380531158
0.6400000000000001,-0.98,-0.1548209399668809
0.6500000000000001,-0.98,-0.11220203436155635
0.6600000000000001,-0.98,-0.06914031858684
0.6699999999999999,-0.98,-0.025805737561868592
0.6799999999999999,-0.98,0.017630686919739666
0.69,-0.98,0.06099753113477033
0.7,-0.98,0.10412364596153313
0.71,-0.98,0.14683883232725495
0.72,-0.98,0.18897451290606215
0.73,-0.98,0.2303643974166721
0.74,-0.98,0.27084513889416073
0.75,-0.98,0.3102569783458078
0.76,-0.98,0.3484443752468545
0.77,-0.98,0.3852566213878946
0.78,-0.98,0.4205484356513252
0.79,-0.98,0.45418053736954433
0.8,-0.98,0.48602019600211627
0.81,-0.98,0.5159417549625747
0.8200000000000001,-0.98,0.5438271275275619
0.8300000000000001,-0.98,0.5695662628711795
0.8400000000000001,-0.98,0.5930575803853189
0.8500000000000001,-0.98,0.6142083705719132
0.8600000000000001,-0.98,0.6329351609249732
0.8700000000000001,-0.98,0.649164045358432
0.8800000000000001,-0.98,0.6628309758797024
0.8900000000000001,-0.98,0.673882015357844
0.9000000000000001,-0.98,0.6822735503887764
0.9100000000000001,-0.98,0.6879724634174602
0.9199999999999999,-0.98,0.6909562634377563
0.9299999999999999,-0.98,0.6912131747541539
0.94,-0.98,0.6887421834550578
0.95,-0.98,0.6835530414142382
0.96,-0.98,0.6756662278046361
0.97,-0.98,0.6651128682764265
0.98,-0.98,0.6519346121182953
0.99,-0.98,0.6361834678867262
1.0,-0.98,0.6179215981519881

-1.0,-0.97,0.5932003994631762
-0.99,-0.97,0.5721492793156278
-0.98,-0.97,0.548840147352762
-0.97,-0.97,0.5233649940695079
-0.96,-0.97,0.49582435825738314
-0.95,-0.97,0.4663269302238187
-0.94,-0.97,0.4349891228411703
-0.9299999999999999,-0.97,0.401934612118295
-0.92,-0.97,0.367293849107846
-0.91,-0.97,0.3312035450755665
-0.9,-0.97,0.29380613196338073
-0.89,-0.97,0.2552492002755891
-0.88,-0.97,0.21568491660657696
-0.87,-0.97,0.17526942310878407
-0.86,-0.97,0.13416222127096372
-0.85,-0.97,0.09252554243867522
-0.84,-0.97,0.05052370756128084
-0.83,-0.97,0.008322478692228606
-0.8200000000000001,-0.97,-0.03391159519804307
-0.81,-0.97,-0.07601183551480237
-0.8,-0.97,-0.11781209184328897
-0.79,-0.97,-0.15914739766849523
-0.78,-0.97,-0.19985462142263394
-0.77,-0.97,-0.2397731102909088
-0.76,-0.97,-0.2787453242347797
-0.75,-0.97,-0.3166174577305214
-0.74,-0.97,-0.35324004676935783
-0.73,-0.97,-0.38846855872362235
-0.72,-0.97,-0.42216396275100754
-0.71,-0.97,-0.4541932784857831
-0.7,-0.97,-0.4844301008515466
-0.69,-0.97,-0.5127550989243107
-0.6799999999999999,-0.97,-0.5390564868771415
-0.6699999999999999,-0.97,-0.5632304651477517
-0.6599999999999999,-0.97,-0.5851816300879469
-0.6499999999999999,-0.97,-0.6048233504782419
-0.64,-0.97,-0.6220781094217039
-0.63,-0.97,-0.6368778102677339
-0.62,-0.97,-0.6491640453584318
-0.61,-0.97,-0.6588883265369416
-0.6,-0.97,-0.6660122765080527
-0.59,-0.97,-0.6705077802958528
-0.5800000000000001,-0.97,-0.6723570962006922
-0.5700000000000001,-0.97,-0.6715529258175668
-0.56,-0.97,-0.668098442839587
-0.55,-0.97,-0.6620072805328642
-0.54,-0.97,-0.6533034779322362
-0.53,-0.97,-0.6420213849701777
-0.52,-0.97,-0.6282055269133131
-0.51,-0.97,-0.6119104286415271
-0.5,-0.97,-0.5932003994631756
-0.49,-0.97,-0.5721492793156276
-0.48,-0.97,-0.5488401473527618
-0.47,-0.97,-0.5233649940695075
-0.45999999999999996,-0.97,-0.4958243582573831
-0.44999999999999996,-0.97,-0.466326930223819
-0.43999999999999995,-0.97,-0.43498912284117075
-0.42999999999999994,-0.97,-0.40193461211829495
-0.42000000000000004,-0.97,-0.367293849107846
-0.41000000000000003,-0.97,-0.33120354507556676
-0.4,-0.97,-0.2938061319633807
-0.39,-0.97,-0.2552492002755889
-0.38,-0.97,-0.21568491660657713
-0.37,-0.97,-0.1752694231087843
-0.36,-0.97,-0.1341622212709636
-0.35,-0.97,-0.0925255424386752
-0.33999999999999997,-0.97,-0.05052370756128088
-0.32999999999999996,-0.97,-0.008322478692228538
-0.31999999999999995,-0.97,0.03391159519804322
-0.30999999999999994,-0.97,0.07601183551480235
-0.29999999999999993,-0.97,0.117812091843289
-0.29000000000000004,-0.97,0.1591473976684953
-0.28,-0.97,0.19985462142263394
-0.27,-0.97,0.2397731102909089
-0.26,-0.97,0.2787453242347801
-0.25,-0.97,0.31661745773052175
-0.24,-0.97,0.3532400467693582
-0.22999999999999998,-0.97,0.38846855872362285
-0.21999999999999997,-0.97,0.4221639627510076
-0.20999999999999996,-0.97,0.45419327848578317
-0.19999999999999996,-0.97,0.48443010085154686
-0.18999999999999995,-0.97,0.5127550989243104
-0.17999999999999994,-0.97,0.5390564868771414
-0.16999999999999993,-0.97,0.5632304651477518
-0.16000000000000003,-0.97,0.5851816300879473
-0.15000000000000002,-0.97,0.604823350478242
-0.14,-0.97,0.6220781094217044
-0.13,-0.97,0.6368778102677338
-0.12,-0.97,0.6491640453584314
-0.10999999999999999,-0.97,0.6588883265369416
-0.09999999999999998,-0.97,0.6660122765080525
-0.08999999999999997,-0.97,0.670507780295853
-0.07999999999999996,-0.97,0.6723570962006922
-0.06999999999999995,-0.97,0.6715529258175665
-0.05999999999999994,-0.97,0.6680984428395871
-0.04999999999999993,-0.97,0.6620072805328643
-0.040000000000000036,-0.97,0.6533034779322363
-0.030000000000000027,-0.97,0.6420213849701779
-0.020000000000000018,-0.97,0.6282055269133133
-0.010000000000000009,-0.97,0.6119104286415269
0.0,-0.97,0.5932003994631758
0.010000000000000009,-0.97,0.5721492793156271
0.020000000000000018,-0.97,0.5488401473527618
0.030000000000000027,-0.97,0.5233649940695078
0.040000000000000036,-0.97,0.495824358257383
0.050000000000000044,-0.97,0.46632693022381894
0.06000000000000005,-0.97,0.4349891228411704
0.07000000000000006,-0.97,0.40193461211829506
0.08000000000000007,-0.97,0.36729384910784624
0.09000000000000008,-0.97,0.3312035450755666
0.10000000000000009,-0.97,0.29380613196338073
0.1100000000000001,-0.97,0.25524920027558917
0.1200000000000001,-0.97,0.21568491660657696
0.13000000000000012,-0.97,0.17526942310878418
0.14000000000000012,-0.97,0.13416222127096372
0.15000000000000013,-0.97,0.09252554243867543
0.15999999999999992,-0.97,0.05052370756128106
0.16999999999999993,-0.97,0.008322478692228751
0.17999999999999994,-0.97,-0.03391159519804304
0.18999999999999995,-0.97,-0.07601183551480217
0.19999999999999996,-0.97,-0.11781209184328899
0.20999999999999996,-0.97,-0.15914739766849512
0.21999999999999997,-0.97,-0.1998546214226338
0.22999999999999998,-0.97,-0.23977311029090867
0.24,-0.97,-0.27874532423477993
0.25,-0.97,-0.31661745773052147
0.26,-0.97,-0.35324004676935816
0.27,-0.97,-0.3884685587236226
0.28,-0.97,-0.42216396275100765
0.29000000000000004,-0.97,-0.4541932784857833
0.30000000000000004,-0.97,-0.4844301008515468
0.31000000000000005,-0.97,-0.5127550989243099
0.32000000000000006,-0.97,-0.5390564868771412
0.33000000000000007,-0.97,-0.5632304651477518
0.3400000000000001,-0.97,-0.5851816300879473
0.3500000000000001,-0.97,-0.6048233504782422
0.3600000000000001,-0.97,-0.6220781094217046
0.3700000000000001,-0.97,-0.6368778102677338
0.3800000000000001,-0.97,-0.6491640453584315
0.3900000000000001,-0.97,-0.658888326536941
0.40000000000000013,-0.97,-0.6660122765080527
0.4099999999999999,-0.97,-0.6705077802958535
0.41999999999999993,-0.97,-0.6723570962006924
0.42999999999999994,-0.97,-0.6715529258175663
0.43999999999999995,-0.97,-0.6680984428395864
0.44999999999999996,-0.97,-0.6620072805328646
0.45999999999999996,-0.97,-0.6533034779322364
0.47,-0.97,-0.6420213849701781
0.48,-0.97,-0.6282055269133134
0.49,-0.97,-0.6119104286415272
0.5,-0.97,-0.5932003994631757
0.51,-0.97,-0.5721492793156273
0.52,-0.97,-0.5488401473527619
0.53,-0.97,-0.5233649940695075
0.54,-0.97,-0.49582435825738314
0.55,-0.97,-0.46632693022381894
0.56,-0.97,-0.43498912284117053
0.5700000000000001,-0.97,-0.40193461211829506
0.5800000000000001,-0.97,-0.367293849107846
0.5900000000000001,-0.97,-0.3312035450755666
0.6000000000000001,-0.97,-0.2938061319633808
0.6100000000000001,-0.97,-0.25524920027558895
0.6200000000000001,-0.97,-0.21568491660657704
0.6300000000000001,-0.97,-0.17526942310878413
0.6400000000000001,-0.97,-0.13416222127096378
0.6500000000000001,-0.97,-0.09252554243867528
0.6600000000000001,-0.97,-0.050523707561281064
0.6699999999999999,-0.97,-0.00832247869222864