TITLE = "Solution" 
VARIABLES = "x", "y", "sol" 
ZONE STRANDID=1, SOLUTIONTIME= 1.2499999999999953, I= 201, J =201, DATAPACKING=POINT 
-1.0,-1.0,0.8051498108588273
-0.99,-1.0,0.803561031626077
-0.98,-1.0,0.7988009641136131
-0.97,-1.0,0.7908883941332409
-0.96,-1.0,0.779854548983762
-0.95,-1.0,0.7657429742110977
-0.94,-1.0,0.7486093617539104
-0.9299999999999999,-1.0,0.7285213301529653
-0.92,-1.0,0.7055581576916432
-0.91,-1.0,0.679810469520773
-0.9,-1.0,0.6513798800025654
-0.89,-1.0,0.6203785916851481
-0.88,-1.0,0.5869289524903685
-0.87,-1.0,0.5511629728624408
-0.86,-1.0,0.5132218047830364
-0.85,-1.0,0.4732551847088926
-0.84,-1.0,0.43142084263043046
-0.83,-1.0,0.3878838795835411
-0.8200000000000001,-1.0,0.34281611607122353
-0.81,-1.0,0.2963954139665585
-0.8,-1.0,0.2488049745731521
-0.79,-1.0,0.20023261561328573
-0.78,-1.0,0.1508700299971745
-0.77,-1.0,0.10091202929862463
-0.76,-1.0,0.05055577492275399
-0.75,-1.0,-1.9255430583342559e-16
-0.74,-1.0,-0.050555774922754315
-0.73,-1.0,-0.10091202929862494
-0.72,-1.0,-0.15087002999717475
-0.71,-1.0,-0.20023261561328626
-0.7,-1.0,-0.24880497457315248
-0.69,-1.0,-0.2963954139665592
-0.6799999999999999,-1.0,-0.34281611607122353
-0.6699999999999999,-1.0,-0.3878838795835413
-0.6599999999999999,-1.0,-0.4314208426304307
-0.6499999999999999,-1.0,-0.47325518470889283
-0.64,-1.0,-0.5132218047830366
-0.63,-1.0,-0.5511629728624411
-0.62,-1.0,-0.5869289524903687
-0.61,-1.0,-0.6203785916851483
-0.6,-1.0,-0.6513798800025655
-0.59,-1.0,-0.679810469520773
-0.5800000000000001,-1.0,-0.7055581576916434
-0.5700000000000001,-1.0,-0.7285213301529655
-0.56,-1.0,-0.7486093617539107
-0.55,-1.0,-0.7657429742110977
-0.54,-1.0,-0.7798545489837623
-0.53,-1.0,-0.7908883941332411
-0.52,-1.0,-0.7988009641136132
-0.51,-1.0,-0.8035610316260767
-0.5,-1.0,-0.8051498108588269
-0.49,-1.0,-0.8035610316260768
-0.48,-1.0,-0.7988009641136138
-0.47,-1.0,-0.7908883941332407
-0.45999999999999996,-1.0,-0.779854548983762
-0.44999999999999996,-1.0,-0.7657429742110975
-0.43999999999999995,-1.0,-0.7486093617539102
-0.42999999999999994,-1.0,-0.7285213301529654
-0.42000000000000004,-1.0,-0.7055581576916431
-0.41000000000000003,-1.0,-0.679810469520773
-0.4,-1.0,-0.6513798800025659
-0.39,-1.0,-0.6203785916851481
-0.38,-1.0,-0.5869289524903682
-0.37,-1.0,-0.5511629728624412
-0.36,-1.0,-0.5132218047830364
-0.35,-1.0,-0.4732551847088925
-0.33999999999999997,-1.0,-0.4314208426304305
-0.32999999999999996,-1.0,-0.38788387958354104
-0.31999999999999995,-1.0,-0.34281611607122364
-0.30999999999999994,-1.0,-0.29639541396655855
-0.29999999999999993,-1.0,-0.2488049745731522
-0.29000000000000004,-1.0,-0.20023261561328587
-0.28,-1.0,-0.1508700299971747
-0.27,-1.0,-0.10091202929862478
-0.26,-1.0,-0.050555774922754204
-0.25,-1.0,-5.204170427930421e-18
-0.24,-1.0,0.05055577492275414
-0.22999999999999998,-1.0,0.10091202929862475
-0.21999999999999997,-1.0,0.15087002999717455
-0.20999999999999996,-1.0,0.20023261561328587
-0.19999999999999996,-1.0,0.24880497457315215
-0.18999999999999995,-1.0,0.2963954139665589
-0.17999999999999994,-1.0,0.34281611607122386
-0.16999999999999993,-1.0,0.38788387958354126
-0.16000000000000003,-1.0,0.4314208426304306
-0.15000000000000002,-1.0,0.4732551847088926
-0.14,-1.0,0.5132218047830368
-0.13,-1.0,0.551162972862441
-0.12,-1.0,0.5869289524903685
-0.10999999999999999,-1.0,0.6203785916851484
-0.09999999999999998,-1.0,0.6513798800025654
-0.08999999999999997,-1.0,0.6798104695207734
-0.07999999999999996,-1.0,0.7055581576916437
-0.06999999999999995,-1.0,0.7285213301529654
-0.05999999999999994,-1.0,0.7486093617539108
-0.04999999999999993,-1.0,0.7657429742110979
-0.040000000000000036,-1.0,0.7798545489837622
-0.030000000000000027,-1.0,0.7908883941332407
-0.020000000000000018,-1.0,0.7988009641136135
-0.010000000000000009,-1.0,0.8035610316260768
0.0,-1.0,0.8051498108588266
0.010000000000000009,-1.0,0.8035610316260766
0.020000000000000018,-1.0,0.7988009641136132
0.030000000000000027,-1.0,0.7908883941332407
0.040000000000000036,-1.0,0.7798545489837619
0.050000000000000044,-1.0,0.7657429742110978
0.06000000000000005,-1.0,0.7486093617539104
0.07000000000000006,-1.0,0.7285213301529654
0.08000000000000007,-1.0,0.7055581576916437
0.09000000000000008,-1.0,0.679810469520773
0.10000000000000009,-1.0,0.6513798800025654
0.1100000000000001,-1.0,0.6203785916851478
0.1200000000000001,-1.0,0.5869289524903682
0.13000000000000012,-1.0,0.5511629728624411
0.14000000000000012,-1.0,0.513221804783036
0.15000000000000013,-1.0,0.47325518470889244
0.15999999999999992,-1.0,0.4314208426304304
0.16999999999999993,-1.0,0.3878838795835411
0.17999999999999994,-1.0,0.34281611607122364
0.18999999999999995,-1.0,0.2963954139665587
0.19999999999999996,-1.0,0.24880497457315226
0.20999999999999996,-1.0,0.20023261561328576
0.21999999999999997,-1.0,0.15087002999717455
0.22999999999999998,-1.0,0.1009120292986248
0.24,-1.0,0.05055577492275404
0.25,-1.0,-5.377642775528102e-17
0.26,-1.0,-0.050555774922754156
0.27,-1.0,-0.10091202929862488
0.28,-1.0,-0.15087002999717455
0.29000000000000004,-1.0,-0.2002326156132859
0.30000000000000004,-1.0,-0.24880497457315237
0.31000000000000005,-1.0,-0.2963954139665591
0.32000000000000006,-1.0,-0.3428161160712237
0.33000000000000007,-1.0,-0.38788387958354137
0.3400000000000001,-1.0,-0.4314208426304308
0.3500000000000001,-1.0,-0.4732551847088927
0.3600000000000001,-1.0,-0.5132218047830365
0.3700000000000001,-1.0,-0.5511629728624411
0.3800000000000001,-1.0,-0.5869289524903686
0.3900000000000001,-1.0,-0.620378591685148
0.40000000000000013,-1.0,-0.6513798800025661
0.4099999999999999,-1.0,-0.6798104695207736
0.41999999999999993,-1.0,-0.7055581576916438
0.42999999999999994,-1.0,-0.7285213301529656
0.43999999999999995,-1.0,-0.7486093617539105
0.44999999999999996,-1.0,-0.7657429742110978
0.45999999999999996,-1.0,-0.779854548983762
0.47,-1.0,-0.7908883941332412
0.48,-1.0,-0.7988009641136133
0.49,-1.0,-0.8035610316260771
0.5,-1.0,-0.8051498108588266
0.51,-1.0,-0.8035610316260766
0.52,-1.0,-0.7988009641136132
0.53,-1.0,-0.7908883941332409
0.54,-1.0,-0.779854548983762
0.55,-1.0,-0.7657429742110979
0.56,-1.0,-0.7486093617539107
0.5700000000000001,-1.0,-0.7285213301529652
0.5800000000000001,-1.0,-0.7055581576916434
0.5900000000000001,-1.0,-0.6798104695207732
0.6000000000000001,-1.0,-0.6513798800025656
0.6100000000000001,-1.0,-0.6203785916851485
0.6200000000000001,-1.0,-0.5869289524903685
0.6300000000000001,-1.0,-0.551162972862441
0.6400000000000001,-1.0,-0.5132218047830366
0.6500000000000001,-1.0,-0.47325518470889255
0.6600000000000001,-1.0,-0.43142084263043046
0.6699999999999999,-1.0,-0.3878838795835411
0.6799999999999999,-1.0,-0.34281611607122353
0.69,-1.0,-0.2963954139665587
0.7,-1.0,-0.2488049745731521
0.71,-1.0,-0.2002326156132858
0.72,-1.0,-0.1508700299971745
0.73,-1.0,-0.10091202929862471
0.74,-1.0,-0.050555774922754024
0.75,-1.0,1.0928757898653885e-16
0.76,-1.0,0.050555774922754336
0.77,-1.0,0.10091202929862496
0.78,-1.0,0.15087002999717467
0.79,-1.0,0.20023261561328606
0.8,-1.0,0.2488049745731523
0.81,-1.0,0.296395413966559
0.8200000000000001,-1.0,0.34281611607122375
0.8300000000000001,-1.0,0.3878838795835412
0.8400000000000001,-1.0,0.4314208426304307
0.8500000000000001,-1.0,0.4732551847088928
0.8600000000000001,-1.0,0.5132218047830366
0.8700000000000001,-1.0,0.5511629728624413
0.8800000000000001,-1.0,0.5869289524903682
0.8900000000000001,-1.0,0.6203785916851482
0.9000000000000001,-1.0,0.6513798800025657
0.9100000000000001,-1.0,0.6798104695207734
0.9199999999999999,-1.0,0.7055581576916432
0.9299999999999999,-1.0,0.7285213301529658
0.94,-1.0,0.748609361753911
0.95,-1.0,0.7657429742110984
0.96,-1.0,0.779854548983762
0.97,-1.0,0.790888394133241
0.98,-1.0,0.7988009641136137
0.99,-1.0,0.8035610316260768
1.0,-1.0,0.8051498108588273

-1.0,-0.99,0.8035610316260768
-0.99,-0.99,0.8012071615160654
-0.98,-0.99,0.7956912927762853
-0.97,-0.99,0.78703519402069
-0.96,-0.99,0.7752730269164733
-0.95,-0.99,0.760451211363572
-0.94,-0.99,0.7426282422965306
-0.9299999999999999,-0.99,0.7218744588317164
-0.92,-0.99,0.6982717666709631
-0.91,-0.99,0.671913314857185
-0.9,-0.99,0.6429031281576603
-0.89,-0.99,0.6113556965257978
-0.88,-0.99,0.5773955232615976
-0.87,-0.99,0.5411566336540075
-0.86,-0.99,0.5027820460443332
-0.85,-0.99,0.46242320739818976
-0.84,-0.99,0.4202393956135137
-0.83,-0.99,0.37639709092346857
-0.8200000000000001,-0.99,0.3310693188750221
-0.81,-0.99,0.28443496747616104
-0.8,-0.99,0.23667808120664702
-0.79,-0.99,0.18798713467854067
-0.78,-0.99,0.1385542888130105
-0.77,-0.99,0.08857463246896877
-0.76,-0.99,0.03824541251647246
-0.75,-0.99,-0.012234744606559378
-0.74,-0.99,-0.0626666167821523
-0.73,-0.99,-0.11285117245095995
-0.72,-0.99,-0.16259035609890038
-0.71,-0.99,-0.21168786989178628
-0.7,-0.99,-0.25994994837319785
-0.69,-0.99,-0.3071861231682147
-0.6799999999999999,-0.99,-0.35320997467507764
-0.6699999999999999,-0.99,-0.3978398677781857
-0.6599999999999999,-0.99,-0.44089966867892016
-0.6499999999999999,-0.99,-0.48221944001527733
-0.64,-0.99,-0.5216361115270005
-0.63,-0.99,-0.5589941236193976
-0.62,-0.99,-0.5941460412859916
-0.61,-0.99,-0.6269531359671362
-0.6,-0.99,-0.6572859330482608
-0.59,-0.99,-0.6850247228370238
-0.5800000000000001,-0.99,-0.7100600330027752
-0.5700000000000001,-0.99,-0.7322930606138375
-0.56,-0.99,-0.7516360620675324
-0.55,-0.99,-0.7680126993741005
-0.54,-0.99,-0.7813583414278655
-0.53,-0.99,-0.7916203190766853
-0.52,-0.99,-0.7987581329830323
-0.51,-0.99,-0.8027436134563745
-0.5,-0.99,-0.8035610316260768
-0.49,-0.99,-0.8012071615160663
-0.48,-0.99,-0.7956912927762851
-0.47,-0.99,-0.7870351940206901
-0.45999999999999996,-0.99,-0.7752730269164732
-0.44999999999999996,-0.99,-0.7604512113635719
-0.43999999999999995,-0.99,-0.7426282422965307
-0.42999999999999994,-0.99,-0.7218744588317163
-0.42000000000000004,-0.99,-0.6982717666709631
-0.41000000000000003,-0.99,-0.6719133148571854
-0.4,-0.99,-0.6429031281576603
-0.39,-0.99,-0.6113556965257976
-0.38,-0.99,-0.5773955232615978
-0.37,-0.99,-0.5411566336540073
-0.36,-0.99,-0.5027820460443333
-0.35,-0.99,-0.4624232073981898
-0.33999999999999997,-0.99,-0.4202393956135137
-0.32999999999999996,-0.99,-0.3763970909234686
-0.31999999999999995,-0.99,-0.3310693188750221
-0.30999999999999994,-0.99,-0.28443496747616104
-0.29999999999999993,-0.99,-0.23667808120664716
-0.29000000000000004,-0.99,-0.1879871346785409
-0.28,-0.99,-0.13855428881301063
-0.27,-0.99,-0.088574632468969
-0.26,-0.99,-0.03824541251647267
-0.25,-0.99,0.012234744606559194
-0.24,-0.99,0.06266661678215207
-0.22999999999999998,-0.99,0.11285117245095977
-0.21999999999999997,-0.99,0.16259035609890005
-0.20999999999999996,-0.99,0.21168786989178595
-0.19999999999999996,-0.99,0.25994994837319757
-0.18999999999999995,-0.99,0.30718612316821503
-0.17999999999999994,-0.99,0.3532099746750776
-0.16999999999999993,-0.99,0.39783986777818553
-0.16000000000000003,-0.99,0.44089966867891994
-0.15000000000000002,-0.99,0.4822194400152776
-0.14,-0.99,0.5216361115270003
-0.13,-0.99,0.5589941236193976
-0.12,-0.99,0.5941460412859917
-0.10999999999999999,-0.99,0.6269531359671361
-0.09999999999999998,-0.99,0.6572859330482611
-0.08999999999999997,-0.99,0.6850247228370241
-0.07999999999999996,-0.99,0.7100600330027753
-0.06999999999999995,-0.99,0.7322930606138376
-0.05999999999999994,-0.99,0.7516360620675326
-0.04999999999999993,-0.99,0.7680126993741004
-0.040000000000000036,-0.99,0.7813583414278653
-0.030000000000000027,-0.99,0.7916203190766853
-0.020000000000000018,-0.99,0.7987581329830323
-0.010000000000000009,-0.99,0.8027436134563741
0.0,-0.99,0.8035610316260766
0.010000000000000009,-0.99,0.8012071615160657
0.020000000000000018,-0.99,0.7956912927762851
0.030000000000000027,-0.99,0.7870351940206899
0.040000000000000036,-0.99,0.7752730269164732
0.050000000000000044,-0.99,0.7604512113635722
0.06000000000000005,-0.99,0.7426282422965307
0.07000000000000006,-0.99,0.721874458831717
0.08000000000000007,-0.99,0.698271766670963
0.09000000000000008,-0.99,0.6719133148571852
0.10000000000000009,-0.99,0.6429031281576598
0.1100000000000001,-0.99,0.6113556965257976
0.1200000000000001,-0.99,0.5773955232615978
0.13000000000000012,-0.99,0.5411566336540069
0.14000000000000012,-0.99,0.5027820460443331
0.15000000000000013,-0.99,0.46242320739818965
0.15999999999999992,-0.99,0.4202393956135137
0.16999999999999993,-0.99,0.3763970909234686
0.17999999999999994,-0.99,0.3310693188750224
0.18999999999999995,-0.99,0.28443496747616115
0.19999999999999996,-0.99,0.2366780812066471
0.20999999999999996,-0.99,0.18798713467854078
0.21999999999999997,-0.99,0.13855428881301066
0.22999999999999998,-0.99,0.08857463246896884
0.24,-0.99,0.03824541251647259
0.25,-0.99,-0.012234744606559232
0.26,-0.99,-0.06266661678215224
0.27,-0.99,-0.11285117245095977
0.28,-0.99,-0.16259035609890007
0.29000000000000004,-0.99,-0.21168786989178612
0.30000000000000004,-0.99,-0.2599499483731978
0.31000000000000005,-0.99,-0.30718612316821486
0.32000000000000006,-0.99,-0.35320997467507775
0.33000000000000007,-0.99,-0.3978398677781858
0.3400000000000001,-0.99,-0.44089966867892005
0.3500000000000001,-0.99,-0.48221944001527717
0.3600000000000001,-0.99,-0.5216361115270004
0.3700000000000001,-0.99,-0.5589941236193978
0.3800000000000001,-0.99,-0.5941460412859912
0.3900000000000001,-0.99,-0.6269531359671368
0.40000000000000013,-0.99,-0.6572859330482614
0.4099999999999999,-0.99,-0.6850247228370241
0.41999999999999993,-0.99,-0.7100600330027755
0.42999999999999994,-0.99,-0.7322930606138374
0.43999999999999995,-0.99,-0.7516360620675326
0.44999999999999996,-0.99,-0.7680126993741003
0.45999999999999996,-0.99,-0.7813583414278655
0.47,-0.99,-0.7916203190766854
0.48,-0.99,-0.7987581329830327
0.49,-0.99,-0.8027436134563743
0.5,-0.99,-0.8035610316260766
0.51,-0.99,-0.8012071615160659
0.52,-0.99,-0.7956912927762853
0.53,-0.99,-0.7870351940206901
0.54,-0.99,-0.7752730269164734
0.55,-0.99,-0.7604512113635724
0.56,-0.99,-0.7426282422965303
0.5700000000000001,-0.99,-0.7218744588317165
0.5800000000000001,-0.99,-0.6982717666709635
0.5900000000000001,-0.99,-0.6719133148571854
0.6000000000000001,-0.99,-0.6429031281576605
0.6100000000000001,-0.99,-0.6113556965257978
0.6200000000000001,-0.99,-0.5773955232615977
0.6300000000000001,-0.99,-0.5411566336540075
0.6400000000000001,-0.99,-0.5027820460443333
0.6500000000000001,-0.99,-0.46242320739818976
0.6600000000000001,-0.99,-0.42023939561351376
0.6699999999999999,-0.99,-0.3763970909234686
0.6799999999999999,-0.99,-0.3310693188750224
0.69,-0.99,-0.2844349674761609
0.7,-0.99,-0.23667808120664713
0.71,-0.99,-0.18798713467854064
0.72,-0.99,-0.13855428881301057
0.73,-0.99,-0.0885746324689688
0.74,-0.99,-0.03824541251647252
0.75,-0.99,0.012234744606559388
0.76,-0.99,0.0626666167821523
0.77,-0.99,0.1128511724509599
0.78,-0.99,0.16259035609890019
0.79,-0.99,0.21168786989178612
0.8,-0.99,0.2599499483731976
0.81,-0.99,0.3071861231682149
0.8200000000000001,-0.99,0.3532099746750776
0.8300000000000001,-0.99,0.3978398677781857
0.8400000000000001,-0.99,0.4408996686789201
0.8500000000000001,-0.99,0.48221944001527745
0.8600000000000001,-0.99,0.5216361115270006
0.8700000000000001,-0.99,0.5589941236193974
0.8800000000000001,-0.99,0.5941460412859916
0.8900000000000001,-0.99,0.6269531359671361
0.9000000000000001,-0.99,0.6572859330482613
0.9100000000000001,-0.99,0.6850247228370234
0.9199999999999999,-0.99,0.7100600330027758
0.9299999999999999,-0.99,0.7322930606138378
0.94,-0.99,0.7516360620675331
0.95,-0.99,0.7680126993741003
0.96,-0.99,0.7813583414278655
0.97,-0.99,0.7916203190766857
0.98,-0.99,0.7987581329830323
0.99,-0.99,0.8027436134563748
1.0,-0.99,0.8035610316260768

-1.0,-0.98,0.7988009641136131
-0.99,-0.98,0.7956912927762851
-0.98,-0.98,0.7894413914231424
-0.97,-0.98,0.7800759255595178
-0.96,-0.98,0.7676318564005
-0.95,-0.98,0.7521582950019061
-0.94,-0.98,0.7337163084413783
-0.9299999999999999,-0.98,0.7123786788145283
-0.92,-0.98,0.6882296159972582
-0.91,-0.98,0.6613644253078502
-0.9,-0.98,0.6318891313804174
-0.89,-0.98,0.5999200597341099
-0.88,-0.98,0.5655833776894369
-0.87,-0.98,0.52901459644349
-0.86,-0.98,0.4903580362691605
-0.85,-0.98,0.44976625694895433
-0.84,-0.98,0.40739945569122793
-0.83,-0.98,0.3634248349049948
-0.8200000000000001,-0.98,0.318015942328406
-0.81,-0.98,0.2713519861151107
-0.8,-0.98,0.2236171275815495
-0.79,-0.98,0.1749997544063718
-0.78,-0.98,0.12569173715033496
-0.77,-0.98,0.07588767203085833
-0.76,-0.98,0.025784112939655407
-0.75,-0.98,-0.024421204265679643
-0.74,-0.98,-0.07453014213476503
-0.73,-0.98,-0.12434494358242773
-0.72,-0.98,-0.17366901234557144
-0.71,-0.98,-0.22230768885881202
-0.7,-0.98,-0.27006901848684856
-0.69,-0.98,-0.3167645090817164
-0.6799999999999999,-0.98,-0.3622098748751768
-0.6699999999999999,-0.98,-0.40622576377045666
-0.6599999999999999,-0.98,-0.4486384651630324
-0.6499999999999999,-0.98,-0.4892805954970278
-0.64,-0.98,-0.5279917588516384
-0.63,-0.98,-0.5646191799505509
-0.62,-0.98,-0.5990183070961654
-0.61,-0.98,-0.631053382649104
-0.6,-0.98,-0.6605979788015943
-0.59,-0.98,-0.6875354965302631
-0.5800000000000001,-0.98,-0.7117596257592178
-0.5700000000000001,-0.98,-0.7331747649173423
-0.56,-0.98,-0.7516963982340275
-0.55,-0.98,-0.7672514292843002
-0.54,-0.98,-0.7797784694670234
-0.53,-0.98,-0.7892280802776569
-0.52,-0.98,-0.7955629684194465
-0.51,-0.98,-0.7987581329830324
-0.5,-0.98,-0.7988009641136138
-0.49,-0.98,-0.7956912927762854
-0.48,-0.98,-0.7894413914231426
-0.47,-0.98,-0.7800759255595178
-0.45999999999999996,-0.98,-0.7676318564004999
-0.44999999999999996,-0.98,-0.7521582950019062
-0.43999999999999995,-0.98,-0.733716308441378
-0.42999999999999994,-0.98,-0.7123786788145283
-0.42000000000000004,-0.98,-0.6882296159972585
-0.41000000000000003,-0.98,-0.6613644253078503
-0.4,-0.98,-0.6318891313804174
-0.39,-0.98,-0.5999200597341099
-0.38,-0.98,-0.5655833776894368
-0.37,-0.98,-0.52901459644349
-0.36,-0.98,-0.4903580362691607
-0.35,-0.98,-0.44976625694895433
-0.33999999999999997,-0.98,-0.40739945569122793
-0.32999999999999996,-0.98,-0.3634248349049948
-0.31999999999999995,-0.98,-0.3180159423284061
-0.30999999999999994,-0.98,-0.2713519861151108
-0.29999999999999993,-0.98,-0.22361712758154978
-0.29000000000000004,-0.98,-0.17499975440637194
-0.28,-0.98,-0.1256917371503352
-0.27,-0.98,-0.07588767203085854
-0.26,-0.98,-0.025784112939655605
-0.25,-0.98,0.02442120426567944
-0.24,-0.98,0.0745301421347648
-0.22999999999999998,-0.98,0.12434494358242737
-0.21999999999999997,-0.98,0.1736690123455712
-0.20999999999999996,-0.98,0.2223076888588117
-0.19999999999999996,-0.98,0.27006901848684883
-0.18999999999999995,-0.98,0.3167645090817163
-0.17999999999999994,-0.98,0.36220987487517664
-0.16999999999999993,-0.98,0.40622576377045627
-0.16000000000000003,-0.98,0.4486384651630325
-0.15000000000000002,-0.98,0.48928059549702774
-0.14,-0.98,0.5279917588516382
-0.13,-0.98,0.5646191799505511
-0.12,-0.98,0.5990183070961652
-0.10999999999999999,-0.98,0.6310533826491044
-0.09999999999999998,-0.98,0.6605979788015944
-0.08999999999999997,-0.98,0.6875354965302632
-0.07999999999999996,-0.98,0.7117596257592179
-0.06999999999999995,-0.98,0.7331747649173426
-0.05999999999999994,-0.98,0.7516963982340272
-0.04999999999999993,-0.98,0.7672514292843
-0.040000000000000036,-0.98,0.7797784694670236
-0.030000000000000027,-0.98,0.7892280802776568
-0.020000000000000018,-0.98,0.7955629684194461
-0.010000000000000009,-0.98,0.7987581329830322
0.0,-0.98,0.7988009641136133
0.010000000000000009,-0.98,0.7956912927762851
0.020000000000000018,-0.98,0.7894413914231424
0.030000000000000027,-0.98,0.7800759255595178
0.040000000000000036,-0.98,0.7676318564005004
0.050000000000000044,-0.98,0.7521582950019062
0.06000000000000005,-0.98,0.7337163084413787
0.07000000000000006,-0.98,0.7123786788145283
0.08000000000000007,-0.98,0.6882296159972582
0.09000000000000008,-0.98,0.6613644253078499
0.10000000000000009,-0.98,0.6318891313804174
0.1100000000000001,-0.98,0.5999200597341101
0.1200000000000001,-0.98,0.5655833776894363
0.13000000000000012,-0.98,0.5290145964434898
0.14000000000000012,-0.98,0.4903580362691605
0.15000000000000013,-0.98,0.4497662569489543
0.15999999999999992,-0.98,0.40739945569122793
0.16999999999999993,-0.98,0.363424834904995
0.17999999999999994,-0.98,0.31801594232840613
0.18999999999999995,-0.98,0.27135198611511074
0.19999999999999996,-0.98,0.22361712758154964
0.20999999999999996,-0.98,0.17499975440637197
0.21999999999999997,-0.98,0.12569173715033502
0.22999999999999998,-0.98,0.07588767203085843
0.24,-0.98,0.02578411293965554
0.25,-0.98,-0.024421204265679605
0.26,-0.98,-0.07453014213476483
0.27,-0.98,-0.12434494358242743
0.28,-0.98,-0.1736690123455713
0.29000000000000004,-0.98,-0.22230768885881186
0.30000000000000004,-0.98,-0.27006901848684867
0.31000000000000005,-0.98,-0.31676450908171644
0.32000000000000006,-0.98,-0.362209874875177
0.33000000000000007,-0.98,-0.4062257637704565
0.3400000000000001,-0.98,-0.4486384651630322
0.3500000000000001,-0.98,-0.48928059549702774
0.3600000000000001,-0.98,-0.5279917588516385
0.3700000000000001,-0.98,-0.5646191799505507
0.3800000000000001,-0.98,-0.5990183070961658
0.3900000000000001,-0.98,-0.6310533826491046
0.40000000000000013,-0.98,-0.6605979788015945
0.4099999999999999,-0.98,-0.6875354965302634
0.41999999999999993,-0.98,-0.7117596257592177
0.42999999999999994,-0.98,-0.7331747649173425
0.43999999999999995,-0.98,-0.7516963982340272
0.44999999999999996,-0.98,-0.7672514292843002
0.45999999999999996,-0.98,-0.7797784694670238
0.47,-0.98,-0.7892280802776573
0.48,-0.98,-0.7955629684194463
0.49,-0.98,-0.7987581329830322
0.5,-0.98,-0.7988009641136136
0.51,-0.98,-0.7956912927762851
0.52,-0.98,-0.7894413914231426
0.53,-0.98,-0.7800759255595177
0.54,-0.98,-0.7676318564005005
0.55,-0.98,-0.7521582950019059
0.56,-0.98,-0.7337163084413783
0.5700000000000001,-0.98,-0.7123786788145287
0.5800000000000001,-0.98,-0.6882296159972585
0.5900000000000001,-0.98,-0.6613644253078507
0.6000000000000001,-0.98,-0.6318891313804175
0.6100000000000001,-0.98,-0.59992005973411
0.6200000000000001,-0.98,-0.5655833776894369
0.6300000000000001,-0.98,-0.52901459644349
0.6400000000000001,-0.98,-0.4903580362691607
0.6500000000000001,-0.98,-0.44976625694895445
0.6600000000000001,-0.98,-0.4073994556912278
0.6699999999999999,-0.98,-0.3634248349049951
0.6799999999999999,-0.98,-0.3180159423284059
0.69,-0.98,-0.27135198611511074
0.7,-0.98,-0.2236171275815495
0.71,-0.98,-0.1749997544063719
0.72,-0.98,-0.125691737150335
0.73,-0.98,-0.07588767203085836
0.74,-0.98,-0.025784112939655407
0.75,-0.98,0.02442120426567965
0.76,-0.98,0.07453014213476497
0.77,-0.98,0.12434494358242754
0.78,-0.98,0.1736690123455713
0.79,-0.98,0.2223076888588118
0.8,-0.98,0.2700690184868487
0.81,-0.98,0.3167645090817164
0.8200000000000001,-0.98,0.36220987487517686
0.8300000000000001,-0.98,0.40622576377045644
0.8400000000000001,-0.98,0.44863846516303235
0.8500000000000001,-0.98,0.4892805954970279
0.8600000000000001,-0.98,0.5279917588516382
0.8700000000000001,-0.98,0.5646191799505509
0.8800000000000001,-0.98,0.5990183070961654
0.8900000000000001,-0.98,0.6310533826491046
0.9000000000000001,-0.98,0.660597978801594
0.9100000000000001,-0.98,0.6875354965302636
0.9199999999999999,-0.98,0.711759625759218
0.9299999999999999,-0.98,0.733174764917343
0.94,-0.98,0.7516963982340275
0.95,-0.98,0.7672514292843003
0.96,-0.98,0.779778469467024
0.97,-0.98,0.7892280802776569
0.98,-0.98,0.7955629684194467
0.99,-0.98,0.7987581329830324
1.0,-0.98,0.7988009641136131

-1.0,-0.97,0.7908883941332406
-0.99,-0.97,0.78703519402069
-0.98,-0.97,0.7800759255595178
-0.97,-0.97,0.7700380538029525
-0.96,-0.97,0.7569611936449507
-0.95,-0.97,0.7408969534783062
-0.94,-0.97,0.721908731519904
-0.9299999999999999,-0.97,0.7000714656069202
-0.92,-0.97,0.6754713374514154
-0.91,-0.97,0.6482054325204905
-0.9,-0.97,0.6183813568843
-0.89,-0.97,0.5861168125440565
-0.88,-0.97,0.5515391329160024
-0.87,-0.97,0.51478478030459
-0.86,-0.97,0.4759988073481111
-0.85,-0.97,0.43533428456219886
-0.84,-0.97,0.39295169624043547
-0.83,-0.97,0.34901830709616527
-0.8200000000000001,-0.97,0.30370750214508335
-0.81,-0.97,0.2571981024337945
-0.8,-0.97,0.20967365931483545
-0.79,-0.97,0.16132173005334383
-0.78,-0.97,0.11233313762421966
-0.77,-0.97,0.06290121762102159
-0.76,-0.97,0.013221055248706207
-0.75,-0.97,-0.036511284588550255
-0.74,-0.97,-0.08609953106595508
-0.73,-0.97,-0.13534798202937648
-0.72,-0.97,-0.18406227634233938
-0.71,-0.97,-0.2320501609406338
-0.7,-0.97,-0.27912224956733056
-0.69,-0.97,-0.3250927701938107
-0.6799999999999999,-0.97,-0.36978029817709546
-0.6699999999999999,-0.97,-0.4130084722600236
-0.6599999999999999,-0.97,-0.4546066905885642
-0.6499999999999999,-0.97,-0.4944107839993934
-0.64,-0.97,-0.5322636639205782
-0.63,-0.97,-0.5680159423284062
-0.62,-0.97,-0.6015265213136634
-0.61,-0.97,-0.6326631499306234
-0.6,-0.97,-0.6613029461311064
-0.59,-0.97,-0.6873328817237883
-0.5800000000000001,-0.97,-0.7106502284448302
-0.5700000000000001,-0.97,-0.7311629633794077
-0.56,-0.97,-0.7487901321341102
-0.55,-0.97,-0.7634621683269502
-0.54,-0.97,-0.7751211681340917
-0.53,-0.97,-0.7837211188097848
-0.52,-0.97,-0.7892280802776569
-0.51,-0.97,-0.7916203190766855
-0.5,-0.97,-0.7908883941332411
-0.49,-0.97,-0.7870351940206901
-0.48,-0.97,-0.7800759255595175
-0.47,-0.97,-0.7700380538029526
-0.45999999999999996,-0.97,-0.7569611936449505
-0.44999999999999996,-0.97,-0.740896953478306
-0.43999999999999995,-0.97,-0.7219087315199036
-0.42999999999999994,-0.97,-0.7000714656069202
-0.42000000000000004,-0.97,-0.6754713374514156
-0.41000000000000003,-0.97,-0.6482054325204905
-0.4,-0.97,-0.6183813568843
-0.39,-0.97,-0.5861168125440563
-0.38,-0.97,-0.5515391329160022
-0.37,-0.97,-0.5147847803045901
-0.36,-0.97,-0.4759988073481112
-0.35,-0.97,-0.4353342845621988
-0.33999999999999997,-0.97,-0.3929516962404354
-0.32999999999999996,-0.97,-0.3490183070961653
-0.31999999999999995,-0.97,-0.30370750214508335
-0.30999999999999994,-0.97,-0.25719810243379476
-0.29999999999999993,-0.97,-0.20967365931483556
-0.29000000000000004,-0.97,-0.16132173005334408
-0.28,-0.97,-0.11233313762421986
-0.27,-0.97,-0.06290121762102181
-0.26,-0.97,-0.013221055248706412
-0.25,-0.97,0.03651128458855002
-0.24,-0.97,0.08609953106595472
-0.22999999999999998,-0.97,0.13534798202937626
-0.21999999999999997,-0.97,0.18406227634233907
-0.20999999999999996,-0.97,0.23205016094063396
-0.19999999999999996,-0.97,0.27912224956733045
-0.18999999999999995,-0.97,0.32509277019381044
-0.17999999999999994,-0.97,0.36978029817709496
-0.16999999999999993,-0.97,0.4130084722600237
-0.16000000000000003,-0.97,0.4546066905885642
-0.15000000000000002,-0.97,0.4944107839993932
-0.14,-0.97,0.5322636639205784
-0.13,-0.97,0.568015942328406
-0.12,-0.97,0.6015265213136637
-0.10999999999999999,-0.97,0.6326631499306233
-0.09999999999999998,-0.97,0.6613029461311065
-0.08999999999999997,-0.97,0.6873328817237885
-0.07999999999999996,-0.97,0.7106502284448305
-0.06999999999999995,-0.97,0.7311629633794077
-0.05999999999999994,-0.97,0.7487901321341097
-0.04999999999999993,-0.97,0.7634621683269502
-0.040000000000000036,-0.97,0.7751211681340915
-0.030000000000000027,-0.97,0.7837211188097843
-0.020000000000000018,-0.97,0.7892280802776568
-0.010000000000000009,-0.97,0.7916203190766852
0.0,-0.97,0.7908883941332406
0.010000000000000009,-0.97,0.7870351940206899
0.020000000000000018,-0.97,0.7800759255595179
0.030000000000000027,-0.97,0.7700380538029528
0.040000000000000036,-0.97,0.7569611936449507
0.050000000000000044,-0.97,0.7408969534783068
0.06000000000000005,-0.97,0.721908731519904
0.07000000000000006,-0.97,0.7000714656069201
0.08000000000000007,-0.97,0.6754713374514152
0.09000000000000008,-0.97,0.6482054325204905
0.10000000000000009,-0.97,0.6183813568843
0.1100000000000001,-0.97,0.5861168125440561
0.1200000000000001,-0.97,0.551539132916002
0.13000000000000012,-0.97,0.51478478030459
0.14000000000000012,-0.97,0.475998807348111
0.15000000000000013,-0.97,0.4353342845621988
0.15999999999999992,-0.97,0.3929516962404357
0.16999999999999993,-0.97,0.34901830709616544
0.17999999999999994,-0.97,0.3037075021450834
0.18999999999999995,-0.97,0.25719810243379465
0.19999999999999996,-0.97,0.20967365931483561
0.20999999999999996,-0.97,0.16132173005334388
0.21999999999999997,-0.97,0.11233313762421973
0.22999999999999998,-0.97,0.06290121762102172
0.24,-0.97,0.013221055248706242
0.25,-0.97,-0.03651128458855005
0.26,-0.97,-0.0860995310659548
0.27,-0.97,-0.13534798202937637
0.28,-0.97,-0.18406227634233918
0.29000000000000004,-0.97,-0.23205016094063388
0.30000000000000004,-0.97,-0.27912224956733056
0.31000000000000005,-0.97,-0.3250927701938108
0.32000000000000006,-0.97,-0.36978029817709523
0.33000000000000007,-0.97,-0.4130084722600233
0.3400000000000001,-0.97,-0.4546066905885642
0.3500000000000001,-0.97,-0.4944107839993934
0.3600000000000001,-0.97,-0.532263663920578
0.3700000000000001,-0.97,-0.5680159423284065
0.3800000000000001,-0.97,-0.6015265213136638
0.3900000000000001,-0.97,-0.6326631499306237
0.40000000000000013,-0.97,-0.6613029461311066
0.4099999999999999,-0.97,-0.6873328817237881
0.41999999999999993,-0.97,-0.7106502284448303
0.42999999999999994,-0.97,-0.7311629633794074
0.43999999999999995,-0.97,-0.74879013213411
0.44999999999999996,-0.97,-0.7634621683269505
0.45999999999999996,-0.97,-0.7751211681340922
0.47,-0.97,-0.7837211188097845
0.48,-0.97,-0.7892280802776568
0.49,-0.97,-0.7916203190766855
0.5,-0.97,-0.7908883941332407
0.51,-0.97,-0.7870351940206901
0.52,-0.97,-0.7800759255595175
0.53,-0.97,-0.770038053802953
0.54,-0.97,-0.7569611936449504
0.55,-0.97,-0.7408969534783062
0.56,-0.97,-0.7219087315199041
0.5700000000000001,-0.97,-0.7000714656069202
0.5800000000000001,-0.97,-0.6754713374514159
0.5900000000000001,-0.97,-0.6482054325204905
0.6000000000000001,-0.97,-0.6183813568843002
0.6100000000000001,-0.97,-0.5861168125440565
0.6200000000000001,-0.97,-0.5515391329160022
0.6300000000000001,-0.97,-0.5147847803045902
0.6400000000000001,-0.97,-0.4759988073481113
0.6500000000000001,-0.97,-0.4353342845621987
0.6600000000000001,-0.97,-0.3929516962404357
0.6699999999999999,-0.97,-0.3490183070961652