TITLE = "Solution" 
VARIABLES = "x", "y", "sol" 
ZONE STRANDID=1, SOLUTIONTIME= 0.30000000000000016, I= 201, J =201, DATAPACKING=POINT 
-1.0,-1.0,0.8486285149581534
-0.99,-1.0,0.8654076111161844
-0.98,-1.0,0.87877133880027
-0.97,-1.0,0.8886669574825468
-0.96,-1.0,0.895055413676954
-0.95,-1.0,0.8979114950655007
-0.94,-1.0,0.8972239299997656
-0.9299999999999999,-1.0,0.8929954319849446
-0.92,-1.0,0.8852426889708847
-0.91,-1.0,0.8739962974923716
-0.9,-1.0,0.859300641918583
-0.89,-1.0,0.8412137192882627
-0.88,-1.0,0.8198069104219038
-0.87,-1.0,0.7951646982142606
-0.86,-1.0,0.7673843342189607
-0.85,-1.0,0.7365754548410528
-0.84,-1.0,0.7028596486522035
-0.83,-1.0,0.666369976536153
-0.8200000000000001,-1.0,0.627250446558199
-0.81,-1.0,0.58565544563115
-0.8,-1.0,0.5417491302207169
-0.79,-1.0,0.49570477849493816
-0.78,-1.0,0.44770410647441106
-0.77,-1.0,0.39793655088218
-0.76,-1.0,0.3465985215235338
-0.75,-1.0,0.29389262614623685
-0.74,-1.0,0.24002687084030955
-0.73,-1.0,0.1852138391330223
-0.72,-1.0,0.12966985301883108
-0.71,-1.0,0.07361411923529548
-0.7,-1.0,0.01726786415423013
-0.69,-1.0,-0.039146539297715284
-0.6799999999999999,-1.0,-0.09540644924340516
-0.6699999999999999,-1.0,-0.15128983352099196
-0.6599999999999999,-1.0,-0.2065761459434216
-0.6499999999999999,-1.0,-0.26104719669347665
-0.64,-1.0,-0.3144880134193023
-0.63,-1.0,-0.36668768963206855
-0.62,-1.0,-0.41744021705752743
-0.61,-1.0,-0.46654529865655503
-0.6,-1.0,-0.5138091391060569
-0.59,-1.0,-0.5590452096205749
-0.5800000000000001,-1.0,-0.6020749840961821
-0.5700000000000001,-1.0,-0.6427286436714579
-0.56,-1.0,-0.6808457469249486
-0.55,-1.0,-0.7162758630641607
-0.54,-1.0,-0.7488791656071736
-0.53,-1.0,-0.7785269842138816
-0.52,-1.0,-0.805102312489044
-0.51,-1.0,-0.8285002697530716
-0.5,-1.0,-0.8486285149581533
-0.49,-1.0,-0.8654076111161846
-0.48,-1.0,-0.87877133880027
-0.47,-1.0,-0.8886669574825468
-0.45999999999999996,-1.0,-0.8950554136769542
-0.44999999999999996,-1.0,-0.8979114950655007
-0.43999999999999995,-1.0,-0.8972239299997655
-0.42999999999999994,-1.0,-0.8929954319849442
-0.42000000000000004,-1.0,-0.8852426889708845
-0.41000000000000003,-1.0,-0.8739962974923716
-0.4,-1.0,-0.8593006419185829
-0.39,-1.0,-0.8412137192882629
-0.38,-1.0,-0.8198069104219039
-0.37,-1.0,-0.7951646982142605
-0.36,-1.0,-0.7673843342189607
-0.35,-1.0,-0.7365754548410529
-0.33999999999999997,-1.0,-0.702859648652204
-0.32999999999999996,-1.0,-0.6663699765361535
-0.31999999999999995,-1.0,-0.6272504465581991
-0.30999999999999994,-1.0,-0.5856554456311501
-0.29999999999999993,-1.0,-0.5417491302207172
-0.29000000000000004,-1.0,-0.4957047784949382
-0.28,-1.0,-0.44770410647441117
-0.27,-1.0,-0.39793655088217983
-0.26,-1.0,-0.3465985215235337
-0.25,-1.0,-0.29389262614623657
-0.24,-1.0,-0.2400268708403095
-0.22999999999999998,-1.0,-0.18521383913302225
-0.21999999999999997,-1.0,-0.129669853018831
-0.20999999999999996,-1.0,-0.07361411923529536
-0.19999999999999996,-1.0,-0.017267864154230046
-0.18999999999999995,-1.0,0.039146539297715326
-0.17999999999999994,-1.0,0.09540644924340522
-0.16999999999999993,-1.0,0.15128983352099198
-0.16000000000000003,-1.0,0.20657614594342164
-0.15000000000000002,-1.0,0.2610471966934767
-0.14,-1.0,0.3144880134193023
-0.13,-1.0,0.3666876896320686
-0.12,-1.0,0.41744021705752765
-0.10999999999999999,-1.0,0.46654529865655514
-0.09999999999999998,-1.0,0.5138091391060571
-0.08999999999999997,-1.0,0.5590452096205747
-0.07999999999999996,-1.0,0.6020749840961822
-0.06999999999999995,-1.0,0.6427286436714577
-0.05999999999999994,-1.0,0.6808457469249485
-0.04999999999999993,-1.0,0.7162758630641609
-0.040000000000000036,-1.0,0.7488791656071734
-0.030000000000000027,-1.0,0.7785269842138813
-0.020000000000000018,-1.0,0.805102312489044
-0.010000000000000009,-1.0,0.8285002697530714
0.0,-1.0,0.8486285149581532
0.010000000000000009,-1.0,0.8654076111161845
0.020000000000000018,-1.0,0.8787713388002699
0.030000000000000027,-1.0,0.8886669574825465
0.040000000000000036,-1.0,0.8950554136769541
0.050000000000000044,-1.0,0.8979114950655008
0.06000000000000005,-1.0,0.8972239299997655
0.07000000000000006,-1.0,0.8929954319849442
0.08000000000000007,-1.0,0.8852426889708843
0.09000000000000008,-1.0,0.8739962974923716
0.10000000000000009,-1.0,0.8593006419185834
0.1100000000000001,-1.0,0.8412137192882629
0.1200000000000001,-1.0,0.8198069104219037
0.13000000000000012,-1.0,0.7951646982142606
0.14000000000000012,-1.0,0.7673843342189608
0.15000000000000013,-1.0,0.7365754548410535
0.15999999999999992,-1.0,0.7028596486522036
0.16999999999999993,-1.0,0.6663699765361534
0.17999999999999994,-1.0,0.6272504465581993
0.18999999999999995,-1.0,0.5856554456311499
0.19999999999999996,-1.0,0.5417491302207171
0.20999999999999996,-1.0,0.4957047784949378
0.21999999999999997,-1.0,0.447704106474411
0.22999999999999998,-1.0,0.39793655088217983
0.24,-1.0,0.34659852152353354
0.25,-1.0,0.29389262614623646
0.26,-1.0,0.24002687084030921
0.27,-1.0,0.18521383913302203
0.28,-1.0,0.129669853018831
0.29000000000000004,-1.0,0.07361411923529532
0.30000000000000004,-1.0,0.01726786415423008
0.31000000000000005,-1.0,-0.039146539297715256
0.32000000000000006,-1.0,-0.09540644924340519
0.33000000000000007,-1.0,-0.15128983352099196
0.3400000000000001,-1.0,-0.20657614594342164
0.3500000000000001,-1.0,-0.2610471966934767
0.3600000000000001,-1.0,-0.3144880134193023
0.3700000000000001,-1.0,-0.3666876896320688
0.3800000000000001,-1.0,-0.41744021705752765
0.3900000000000001,-1.0,-0.46654529865655503
0.40000000000000013,-1.0,-0.5138091391060573
0.4099999999999999,-1.0,-0.5590452096205751
0.41999999999999993,-1.0,-0.6020749840961823
0.42999999999999994,-1.0,-0.6427286436714581
0.43999999999999995,-1.0,-0.6808457469249485
0.44999999999999996,-1.0,-0.7162758630641607
0.45999999999999996,-1.0,-0.7488791656071736
0.47,-1.0,-0.7785269842138813
0.48,-1.0,-0.8051023124890438
0.49,-1.0,-0.8285002697530714
0.5,-1.0,-0.848628514958153
0.51,-1.0,-0.8654076111161841
0.52,-1.0,-0.8787713388002697
0.53,-1.0,-0.8886669574825463
0.54,-1.0,-0.895055413676954
0.55,-1.0,-0.8979114950655007
0.56,-1.0,-0.8972239299997655
0.5700000000000001,-1.0,-0.8929954319849442
0.5800000000000001,-1.0,-0.8852426889708847
0.5900000000000001,-1.0,-0.8739962974923715
0.6000000000000001,-1.0,-0.8593006419185831
0.6100000000000001,-1.0,-0.8412137192882628
0.6200000000000001,-1.0,-0.8198069104219039
0.6300000000000001,-1.0,-0.7951646982142607
0.6400000000000001,-1.0,-0.7673843342189609
0.6500000000000001,-1.0,-0.7365754548410534
0.6600000000000001,-1.0,-0.7028596486522036
0.6699999999999999,-1.0,-0.6663699765361535
0.6799999999999999,-1.0,-0.6272504465581988
0.69,-1.0,-0.58565544563115
0.7,-1.0,-0.5417491302207174
0.71,-1.0,-0.4957047784949382
0.72,-1.0,-0.44770410647441106
0.73,-1.0,-0.3979365508821799
0.74,-1.0,-0.34659852152353376
0.75,-1.0,-0.2938926261462369
0.76,-1.0,-0.24002687084030971
0.77,-1.0,-0.1852138391330223
0.78,-1.0,-0.1296698530188312
0.79,-1.0,-0.0736141192352956
0.8,-1.0,-0.01726786415423021
0.81,-1.0,0.03914653929771515
0.8200000000000001,-1.0,0.09540644924340497
0.8300000000000001,-1.0,0.15128983352099176
0.8400000000000001,-1.0,0.20657614594342155
0.8500000000000001,-1.0,0.26104719669347654
0.8600000000000001,-1.0,0.31448801341930216
0.8700000000000001,-1.0,0.36668768963206866
0.8800000000000001,-1.0,0.41744021705752765
0.8900000000000001,-1.0,0.46654529865655503
0.9000000000000001,-1.0,0.5138091391060572
0.9100000000000001,-1.0,0.5590452096205749
0.9199999999999999,-1.0,0.602074984096182
0.9299999999999999,-1.0,0.6427286436714577
0.94,-1.0,0.6808457469249485
0.95,-1.0,0.7162758630641609
0.96,-1.0,0.7488791656071734
0.97,-1.0,0.7785269842138818
0.98,-1.0,0.8051023124890441
0.99,-1.0,0.8285002697530717
1.0,-1.0,0.8486285149581534

-1.0,-0.99,0.8654076111161844
-0.99,-0.99,0.8822733577926112
-0.98,-0.99,0.8956571745981867
-0.97,-0.99,0.9055062417224636
-0.96,-0.99,0.9117816893971138
-0.95,-0.99,0.9144587512971442
-0.94,-0.99,0.9135268622822684
-0.9299999999999999,-0.99,0.908989700092689
-0.92,-0.99,0.9008651708347359
-0.91,-0.99,0.8891853383136455
-0.9,-0.99,0.8739962974923713
-0.89,-0.99,0.855357992575822
-0.88,-0.99,0.8333439804384717
-0.87,-0.99,0.8080411403289804
-0.86,-0.99,0.7795493309974928
-0.85,-0.99,0.7479809965987709
-0.84,-0.99,0.7134607229264858
-0.83,-0.99,0.6761247457300097
-0.8200000000000001,-0.99,0.6361204130541512
-0.81,-0.99,0.5936056037237407
-0.8,-0.99,0.5487481042680371
-0.79,-0.99,0.5017249467439493
-0.78,-0.99,0.452721710071388
-0.77,-0.99,0.4019317876380502
-0.76,-0.99,0.34955562406407237
-0.75,-0.99,0.2957999241386872
-0.74,-0.99,0.2408768370508578
-0.73,-0.99,0.18500311913334755
-0.72,-0.99,0.1283992784245036
-0.71,-0.99,0.0712887044237685
-0.7,-0.99,0.013896786475383791
-0.69,-0.99,-0.043549975740381344
-0.6799999999999999,-0.99,-0.10082486609799059
-0.6699999999999999,-0.99,-0.15770184677161075
-0.6599999999999999,-0.99,-0.21395645030314409
-0.6499999999999999,-0.99,-0.2693666654727351
-0.64,-0.99,-0.32371381347562866
-0.63,-0.99,-0.3767834109475079
-0.62,-0.99,-0.42836601643234407
-0.61,-0.99,-0.47825805695213874
-0.6,-0.99,-0.5262626314164663
-0.59,-0.99,-0.5721902877011196
-0.5800000000000001,-0.99,-0.6158597703290937
-0.5700000000000001,-0.99,-0.6570987358031443
-0.56,-0.99,-0.6957444327668367
-0.55,-0.99,-0.7316443443097953
-0.54,-0.99,-0.7646567898822686
-0.53,-0.99,-0.7946514844435343
-0.52,-0.99,-0.8215100526374315
-0.51,-0.99,-0.845126495965812
-0.5,-0.99,-0.8654076111161846
-0.49,-0.99,-0.8822733577926112
-0.48,-0.99,-0.8956571745981867
-0.47,-0.99,-0.9055062417224639
-0.45999999999999996,-0.99,-0.9117816893971136
-0.44999999999999996,-0.99,-0.914458751297144
-0.43999999999999995,-0.99,-0.9135268622822683
-0.42999999999999994,-0.99,-0.9089897000926889
-0.42000000000000004,-0.99,-0.9008651708347359
-0.41000000000000003,-0.99,-0.8891853383136457
-0.4,-0.99,-0.8739962974923715
-0.39,-0.99,-0.8553579925758221
-0.38,-0.99,-0.8333439804384715
-0.37,-0.99,-0.8080411403289802
-0.36,-0.99,-0.7795493309974928
-0.35,-0.99,-0.7479809965987712
-0.33999999999999997,-0.99,-0.713460722926486
-0.32999999999999996,-0.99,-0.6761247457300099
-0.31999999999999995,-0.99,-0.6361204130541513
-0.30999999999999994,-0.99,-0.593605603723741
-0.29999999999999993,-0.99,-0.5487481042680371
-0.29000000000000004,-0.99,-0.5017249467439495
-0.28,-0.99,-0.45272171007138784
-0.27,-0.99,-0.40193178763805015
-0.26,-0.99,-0.3495556240640721
-0.25,-0.99,-0.29579992413868716
-0.24,-0.99,-0.24087683705085783
-0.22999999999999998,-0.99,-0.18500311913334747
-0.21999999999999997,-0.99,-0.12839927842450344
-0.20999999999999996,-0.99,-0.07128870442376839
-0.19999999999999996,-0.99,-0.01389678647538374
-0.18999999999999995,-0.99,0.0435499757403814
-0.17999999999999994,-0.99,0.10082486609799064
-0.16999999999999993,-0.99,0.1577018467716108
-0.16000000000000003,-0.99,0.21395645030314414
-0.15000000000000002,-0.99,0.2693666654727351
-0.14,-0.99,0.3237138134756287
-0.13,-0.99,0.376783410947508
-0.12,-0.99,0.4283660164323442
-0.10999999999999999,-0.99,0.4782580569521389
-0.09999999999999998,-0.99,0.5262626314164662
-0.08999999999999997,-0.99,0.5721902877011198
-0.07999999999999996,-0.99,0.6158597703290934
-0.06999999999999995,-0.99,0.6570987358031443
-0.05999999999999994,-0.99,0.6957444327668368
-0.04999999999999993,-0.99,0.731644344309795
-0.040000000000000036,-0.99,0.7646567898822684
-0.030000000000000027,-0.99,0.7946514844435343
-0.020000000000000018,-0.99,0.8215100526374316
-0.010000000000000009,-0.99,0.845126495965812
0.0,-0.99,0.8654076111161846
0.010000000000000009,-0.99,0.8822733577926113
0.020000000000000018,-0.99,0.8956571745981866
0.030000000000000027,-0.99,0.9055062417224639
0.040000000000000036,-0.99,0.9117816893971138
0.050000000000000044,-0.99,0.9144587512971439
0.06000000000000005,-0.99,0.9135268622822682
0.07000000000000006,-0.99,0.9089897000926886
0.08000000000000007,-0.99,0.9008651708347358
0.09000000000000008,-0.99,0.8891853383136458
0.10000000000000009,-0.99,0.8739962974923715
0.1100000000000001,-0.99,0.8553579925758219
0.1200000000000001,-0.99,0.8333439804384717
0.13000000000000012,-0.99,0.8080411403289803
0.14000000000000012,-0.99,0.7795493309974935
0.15000000000000013,-0.99,0.7479809965987709
0.15999999999999992,-0.99,0.713460722926486
0.16999999999999993,-0.99,0.67612474573001
0.17999999999999994,-0.99,0.6361204130541512
0.18999999999999995,-0.99,0.5936056037237408
0.19999999999999996,-0.99,0.5487481042680368
0.20999999999999996,-0.99,0.5017249467439493
0.21999999999999997,-0.99,0.4527217100713879
0.22999999999999998,-0.99,0.40193178763804993
0.24,-0.99,0.3495556240640719
0.25,-0.99,0.29579992413868694
0.26,-0.99,0.24087683705085755
0.27,-0.99,0.18500311913334744
0.28,-0.99,0.12839927842450333
0.29000000000000004,-0.99,0.07128870442376842
0.30000000000000004,-0.99,0.013896786475383798
0.31000000000000005,-0.99,-0.04354997574038137
0.32000000000000006,-0.99,-0.10082486609799059
0.33000000000000007,-0.99,-0.15770184677161078
0.3400000000000001,-0.99,-0.21395645030314409
0.3500000000000001,-0.99,-0.269366665472735
0.3600000000000001,-0.99,-0.3237138134756288
0.3700000000000001,-0.99,-0.376783410947508
0.3800000000000001,-0.99,-0.428366016432344
0.3900000000000001,-0.99,-0.478258056952139
0.40000000000000013,-0.99,-0.5262626314164666
0.4099999999999999,-0.99,-0.5721902877011198
0.41999999999999993,-0.99,-0.6158597703290939
0.42999999999999994,-0.99,-0.6570987358031443
0.43999999999999995,-0.99,-0.6957444327668367
0.44999999999999996,-0.99,-0.7316443443097952
0.45999999999999996,-0.99,-0.7646567898822684
0.47,-0.99,-0.7946514844435342
0.48,-0.99,-0.8215100526374315
0.49,-0.99,-0.8451264959658118
0.5,-0.99,-0.8654076111161841
0.51,-0.99,-0.882273357792611
0.52,-0.99,-0.8956571745981864
0.53,-0.99,-0.9055062417224636
0.54,-0.99,-0.9117816893971138
0.55,-0.99,-0.9144587512971439
0.56,-0.99,-0.9135268622822682
0.5700000000000001,-0.99,-0.908989700092689
0.5800000000000001,-0.99,-0.9008651708347358
0.5900000000000001,-0.99,-0.8891853383136457
0.6000000000000001,-0.99,-0.8739962974923714
0.6100000000000001,-0.99,-0.8553579925758221
0.6200000000000001,-0.99,-0.8333439804384717
0.6300000000000001,-0.99,-0.8080411403289804
0.6400000000000001,-0.99,-0.7795493309974932
0.6500000000000001,-0.99,-0.7479809965987709
0.6600000000000001,-0.99,-0.713460722926486
0.6699999999999999,-0.99,-0.6761247457300096
0.6799999999999999,-0.99,-0.6361204130541513
0.69,-0.99,-0.5936056037237412
0.7,-0.99,-0.5487481042680371
0.71,-0.99,-0.5017249467439493
0.72,-0.99,-0.45272171007138795
0.73,-0.99,-0.40193178763805026
0.74,-0.99,-0.34955562406407237
0.75,-0.99,-0.29579992413868744
0.76,-0.99,-0.24087683705085786
0.77,-0.99,-0.18500311913334766
0.78,-0.99,-0.12839927842450374
0.79,-0.99,-0.07128870442376857
0.8,-0.99,-0.01389678647538393
0.81,-0.99,0.04354997574038115
0.8200000000000001,-0.99,0.10082486609799042
0.8300000000000001,-0.99,0.1577018467716107
0.8400000000000001,-0.99,0.21395645030314397
0.8500000000000001,-0.99,0.2693666654727349
0.8600000000000001,-0.99,0.3237138134756287
0.8700000000000001,-0.99,0.376783410947508
0.8800000000000001,-0.99,0.42836601643234395
0.8900000000000001,-0.99,0.47825805695213897
0.9000000000000001,-0.99,0.5262626314164665
0.9100000000000001,-0.99,0.5721902877011197
0.9199999999999999,-0.99,0.6158597703290937
0.9299999999999999,-0.99,0.6570987358031442
0.94,-0.99,0.6957444327668367
0.95,-0.99,0.7316443443097951
0.96,-0.99,0.7646567898822689
0.97,-0.99,0.7946514844435342
0.98,-0.99,0.8215100526374317
0.99,-0.99,0.8451264959658122
1.0,-0.99,0.8654076111161844

-1.0,-0.98,0.8787713388002699
-0.99,-0.98,0.8956571745981867
-0.98,-0.98,0.9090082607148049
-0.97,-0.98,0.9187719065127539
-0.96,-0.98,0.9249095793426539
-0.95,-0.98,0.9273970566138814
-0.94,-0.98,0.9262245213900673
-0.9299999999999999,-0.98,0.9213966011320597
-0.92,-0.98,0.91293234943545
-0.91,-0.98,0.9008651708347355
-0.9,-0.98,0.8852426889708847
-0.89,-0.98,0.8661265586425801
-0.88,-0.98,0.8435922224828987
-0.87,-0.98,0.8177286132217036
-0.86,-0.98,0.7886378027087906
-0.85,-0.98,0.7564345990829257
-0.84,-0.98,0.7212460936765771
-0.83,-0.98,0.6832111594444839
-0.8200000000000001,-0.98,0.6424799028955517
-0.81,-0.98,0.5992130716910382
-0.8,-0.98,0.5535814202469729
-0.79,-0.98,0.505765035844487
-0.78,-0.98,0.4559526279075884
-0.77,-0.98,0.4043407832532804
-0.76,-0.98,0.3511331902532037
-0.75,-0.98,0.29653983496869335
-0.74,-0.98,0.24077617243172525
-0.73,-0.98,0.18406227634233918
-0.72,-0.98,0.126621970538285
-0.71,-0.98,0.0686819456645919
-0.7,-0.98,0.010470864529157022
-0.69,-0.98,-0.04778154032489152
-0.6799999999999999,-0.98,-0.10584537326858698
-0.6699999999999999,-0.98,-0.16349148288014276
-0.6599999999999999,-0.98,-0.22049236630092425
-0.6499999999999999,-0.98,-0.27662306708529616
-0.64,-0.98,-0.33166206300094064
-0.63,-0.98,-0.38539214027590407
-0.62,-0.98,-0.4376012508421193
-0.61,-0.98,-0.48808334919225543
-0.6,-0.98,-0.5366392055472015
-0.59,-0.98,-0.5830771921249851
-0.5800000000000001,-0.98,-0.6272140394080817
-0.5700000000000001,-0.98,-0.6688755594244726
-0.56,-0.98,-0.707897333187991
-0.55,-0.98,-0.7441253595849446
-0.54,-0.98,-0.7774166631461559
-0.53,-0.98,-0.8076398583058184
-0.52,-0.98,-0.8346756679203025
-0.51,-0.98,-0.8584173940005446
-0.5,-0.98,-0.8787713388002699
-0.49,-0.98,-0.8956571745981867
-0.48,-0.98,-0.9090082607148051
-0.47,-0.98,-0.9187719065127536
-0.45999999999999996,-0.98,-0.9249095793426537
-0.44999999999999996,-0.98,-0.9273970566138814
-0.43999999999999995,-0.98,-0.9262245213900673
-0.42999999999999994,-0.98,-0.9213966011320599
-0.42000000000000004,-0.98,-0.91293234943545
-0.41000000000000003,-0.98,-0.9008651708347357
-0.4,-0.98,-0.8852426889708847
-0.39,-0.98,-0.8661265586425799
-0.38,-0.98,-0.8435922224828984
-0.37,-0.98,-0.8177286132217039
-0.36,-0.98,-0.7886378027087908
-0.35,-0.98,-0.756434599082926
-0.33999999999999997,-0.98,-0.7212460936765772
-0.32999999999999996,-0.98,-0.6832111594444839
-0.31999999999999995,-0.98,-0.6424799028955517
-0.30999999999999994,-0.98,-0.5992130716910382
-0.29999999999999993,-0.98,-0.5535814202469731
-0.29000000000000004,-0.98,-0.5057650358444867
-0.28,-0.98,-0.45595262790758845
-0.27,-0.98,-0.40434078325328016
-0.26,-0.98,-0.35113319025320366
-0.25,-0.98,-0.2965398349686933
-0.24,-0.98,-0.24077617243172522
-0.22999999999999998,-0.98,-0.18406227634233896
-0.21999999999999997,-0.98,-0.12662197053828486
-0.20999999999999996,-0.98,-0.06868194566459183
-0.19999999999999996,-0.98,-0.010470864529156949
-0.18999999999999995,-0.98,0.04778154032489158
-0.17999999999999994,-0.98,0.10584537326858705
-0.16999999999999993,-0.98,0.16349148288014284
-0.16000000000000003,-0.98,0.22049236630092434
-0.15000000000000002,-0.98,0.27662306708529616
-0.14,-0.98,0.3316620630009407
-0.13,-0.98,0.38539214027590424
-0.12,-0.98,0.4376012508421193
-0.10999999999999999,-0.98,0.48808334919225527
-0.09999999999999998,-0.98,0.5366392055472016
-0.08999999999999997,-0.98,0.5830771921249849
-0.07999999999999996,-0.98,0.6272140394080818
-0.06999999999999995,-0.98,0.6688755594244725
-0.05999999999999994,-0.98,0.7078973331879906
-0.04999999999999993,-0.98,0.7441253595849443
-0.040000000000000036,-0.98,0.7774166631461559
-0.030000000000000027,-0.98,0.8076398583058185
-0.020000000000000018,-0.98,0.8346756679203022
-0.010000000000000009,-0.98,0.8584173940005446
0.0,-0.98,0.8787713388002701
0.010000000000000009,-0.98,0.8956571745981868
0.020000000000000018,-0.98,0.9090082607148051
0.030000000000000027,-0.98,0.9187719065127538
0.040000000000000036,-0.98,0.9249095793426537
0.050000000000000044,-0.98,0.9273970566138812
0.06000000000000005,-0.98,0.9262245213900671
0.07000000000000006,-0.98,0.9213966011320598
0.08000000000000007,-0.98,0.91293234943545
0.09000000000000008,-0.98,0.9008651708347357
0.10000000000000009,-0.98,0.8852426889708844
0.1100000000000001,-0.98,0.8661265586425801
0.1200000000000001,-0.98,0.8435922224828984
0.13000000000000012,-0.98,0.8177286132217044
0.14000000000000012,-0.98,0.7886378027087907
0.15000000000000013,-0.98,0.7564345990829259
0.15999999999999992,-0.98,0.7212460936765771
0.16999999999999993,-0.98,0.6832111594444836
0.17999999999999994,-0.98,0.6424799028955517
0.18999999999999995,-0.98,0.5992130716910381
0.19999999999999996,-0.98,0.5535814202469731
0.20999999999999996,-0.98,0.5057650358444868
0.21999999999999997,-0.98,0.4559526279075882
0.22999999999999998,-0.98,0.40434078325327993
0.24,-0.98,0.35113319025320333
0.25,-0.98,0.29653983496869313
0.26,-0.98,0.24077617243172514
0.27,-0.98,0.18406227634233885
0.28,-0.98,0.12662197053828486
0.29000000000000004,-0.98,0.06868194566459188
0.30000000000000004,-0.98,0.010470864529156956
0.31000000000000005,-0.98,-0.04778154032489154
0.32000000000000006,-0.98,-0.10584537326858698
0.33000000000000007,-0.98,-0.16349148288014276
0.3400000000000001,-0.98,-0.22049236630092417
0.3500000000000001,-0.98,-0.27662306708529627
0.3600000000000001,-0.98,-0.3316620630009408
0.3700000000000001,-0.98,-0.3853921402759041
0.3800000000000001,-0.98,-0.43760125084211937
0.3900000000000001,-0.98,-0.4880833491922556
0.40000000000000013,-0.98,-0.5366392055472016
0.4099999999999999,-0.98,-0.5830771921249853
0.41999999999999993,-0.98,-0.6272140394080818
0.42999999999999994,-0.98,-0.6688755594244727
0.43999999999999995,-0.98,-0.707897333187991
0.44999999999999996,-0.98,-0.7441253595849445
0.45999999999999996,-0.98,-0.7774166631461557
0.47,-0.98,-0.8076398583058186
0.48,-0.98,-0.8346756679203023
0.49,-0.98,-0.8584173940005442
0.5,-0.98,-0.8787713388002698
0.51,-0.98,-0.8956571745981867
0.52,-0.98,-0.9090082607148049
0.53,-0.98,-0.9187719065127538
0.54,-0.98,-0.9249095793426536
0.55,-0.98,-0.9273970566138814
0.56,-0.98,-0.9262245213900674
0.5700000000000001,-0.98,-0.9213966011320598
0.5800000000000001,-0.98,-0.91293234943545
0.5900000000000001,-0.98,-0.9008651708347357
0.6000000000000001,-0.98,-0.8852426889708845
0.6100000000000001,-0.98,-0.8661265586425799
0.6200000000000001,-0.98,-0.8435922224828987
0.6300000000000001,-0.98,-0.8177286132217042
0.6400000000000001,-0.98,-0.7886378027087905
0.6500000000000001,-0.98,-0.756434599082926
0.6600000000000001,-0.98,-0.7212460936765769
0.6699999999999999,-0.98,-0.6832111594444839
0.6799999999999999,-0.98,-0.6424799028955519
0.69,-0.98,-0.5992130716910383
0.7,-0.98,-0.553581420246973
0.71,-0.98,-0.505765035844487
0.72,-0.98,-0.4559526279075884
0.73,-0.98,-0.4043407832532805
0.74,-0.98,-0.35113319025320383
0.75,-0.98,-0.29653983496869335
0.76,-0.98,-0.24077617243172536
0.77,-0.98,-0.1840622763423393
0.78,-0.98,-0.12662197053828506
0.79,-0.98,-0.06868194566459204
0.8,-0.98,-0.010470864529157197
0.81,-0.98,0.047781540324891354
0.8200000000000001,-0.98,0.10584537326858688
0.8300000000000001,-0.98,0.16349148288014265
0.8400000000000001,-0.98,0.22049236630092406
0.8500000000000001,-0.98,0.27662306708529616
0.8600000000000001,-0.98,0.3316620630009407
0.8700000000000001,-0.98,0.385392140275904
0.8800000000000001,-0.98,0.4376012508421193
0.8900000000000001,-0.98,0.4880833491922555
0.9000000000000001,-0.98,0.5366392055472015
0.9100000000000001,-0.98,0.5830771921249851
0.9199999999999999,-0.98,0.6272140394080815
0.9299999999999999,-0.98,0.6688755594244724
0.94,-0.98,0.7078973331879908
0.95,-0.98,0.7441253595849449
0.96,-0.98,0.7774166631461557
0.97,-0.98,0.8076398583058187
0.98,-0.98,0.8346756679203025
0.99,-0.98,0.8584173940005444
1.0,-0.98,0.8787713388002699

-1.0,-0.97,0.8886669574825468
-0.99,-0.97,0.9055062417224636
-0.98,-0.97,0.918771906512754
-0.97,-0.97,0.9284115983349951
-0.96,-0.97,0.9343872737295214
-0.95,-0.97,0.9366753494355771
-0.94,-0.97,0.9352667954636726
-0.9299999999999999,-0.97,0.9301671707328284
-0.92,-0.97,0.9213966011320597
-0.91,-0.97,0.9089897000926888
-0.9,-0.97,0.8929954319849444
-0.89,-0.97,0.8734769188779611
-0.88,-0.97,0.8505111914258121
-0.87,-0.97,0.8241888848627088
-0.86,-0.97,0.7946138813071366
-0.85,-0.97,0.7619028997865966
-0.84,-0.97,0.7261850356009238
-0.83,-0.97,0.687601250842119
-0.8200000000000001,-0.97,0.6463038180813707
-0.81,-0.97,0.6024557194187836
-0.8,-0.97,0.5562300032674883
-0.79,-0.97,0.5078091014106121
-0.78,-0.97,0.4573841090263793
-0.77,-0.97,0.405154030522742
-0.76,-0.97,0.3513249941579014
-0.75,-0.97,0.2961094385462417
-0.74,-0.97,0.23972527426017473
-0.73,-0.97,0.18239502383666278
-0.72,-0.97,0.12434494358242748
-0.71,-0.97,0.06580413064367352
-0.7,-0.97,0.007003618864316587
-0.69,-0.97,-0.05182453299904866
-0.6799999999999999,-0.97,-0.11044815710704368
-0.6699999999999999,-0.97,-0.16863589279790042
-0.6599999999999999,-0.97,-0.22615809966229483
-0.6499999999999999,-0.97,-0.28278776382912985
-0.64,-0.97,-0.33830139388557146
-0.63,-0.97,-0.39247990289555207
-0.62,-0.97,-0.4451094730358155
-0.61,-0.97,-0.49598239943718186
-0.6,-0.97,-0.544897909900774
-0.59,-0.97,-0.5916629572541634
-0.5800000000000001,-0.97,-0.6360929812203641
-0.5700000000000001,-0.97,-0.6780126367929284
-0.56,-0.97,-0.7172564862425804
-0.55,-0.97,-0.7536696520243517
-0.54,-0.97,-0.7871084280084946
-0.53,-0.97,-0.8174408466229242
-0.52,-0.97,-0.8445471996689315
-0.51,-0.97,-0.8683205107547601
-0.5,-0.97,-0.8886669574825468
-0.49,-0.97,-0.9055062417224639
-0.48,-0.97,-0.9187719065127538
-0.47,-0.97,-0.928411598334995
-0.45999999999999996,-0.97,-0.9343872737295214
-0.44999999999999996,-0.97,-0.9366753494355772
-0.43999999999999995,-0.97,-0.9352667954636729
-0.42999999999999994,-0.97,-0.9301671707328284
-0.42000000000000004,-0.97,-0.9213966011320597
-0.41000000000000003,-0.97,-0.9089897000926889
-0.4,-0.97,-0.8929954319849442
-0.39,-0.97,-0.8734769188779612
-0.38,-0.97,-0.8505111914258123
-0.37,-0.97,-0.824188884862709
-0.36,-0.97,-0.794613881307137
-0.35,-0.97,-0.7619028997865969
-0.33999999999999997,-0.97,-0.7261850356009236
-0.32999999999999996,-0.97,-0.687601250842119
-0.31999999999999995,-0.97,-0.6463038180813709
-0.30999999999999994,-0.97,-0.6024557194187841
-0.29999999999999993,-0.97,-0.5562300032674881
-0.29000000000000004,-0.97,-0.5078091014106123
-0.28,-0.97,-0.4573841090263791
-0.27,-0.97,-0.4051540305227419
-0.26,-0.97,-0.3513249941579013
-0.25,-0.97,-0.2961094385462416
-0.24,-0.97,-0.2397252742601745
-0.22999999999999998,-0.97,-0.18239502383666262
-0.21999999999999997,-0.97,-0.12434494358242738
-0.20999999999999996,-0.97,-0.06580413064367344
-0.19999999999999996,-0.97,-0.007003618864316509
-0.18999999999999995,-0.97,0.05182453299904874
-0.17999999999999994,-0.97,0.11044815710704377
-0.16999999999999993,-0.97,0.1686358927979006
-0.16000000000000003,-0.97,0.2261580996622949
-0.15000000000000002,-0.97,0.28278776382912985
-0.14,-0.97,0.3383013938855717
-0.13,-0.97,0.3924799028955521
-0.12,-0.97,0.4451094730358154
-0.10999999999999999,-0.97,0.49598239943718186
-0.09999999999999998,-0.97,0.544897909900774
-0.08999999999999997,-0.97,0.5916629572541637
-0.07999999999999996,-0.97,0.6360929812203641
-0.06999999999999995,-0.97,0.6780126367929282
-0.05999999999999994,-0.97,0.71725648624258
-0.04999999999999993,-0.97,0.7536696520243515
-0.040000000000000036,-0.97,0.7871084280084946
-0.030000000000000027,-0.97,0.8174408466229239
-0.020000000000000018,-0.97,0.8445471996689317
-0.010000000000000009,-0.97,0.8683205107547606
0.0,-0.97,0.888666957482547
0.010000000000000009,-0.97,0.9055062417224639
0.020000000000000018,-0.97,0.9187719065127538
0.030000000000000027,-0.97,0.928411598334995
0.040000000000000036,-0.97,0.9343872737295211
0.050000000000000044,-0.97,0.9366753494355768
0.06000000000000005,-0.97,0.9352667954636729
0.07000000000000006,-0.97,0.9301671707328284
0.08000000000000007,-0.97,0.9213966011320597
0.09000000000000008,-0.97,0.9089897000926886
0.10000000000000009,-0.97,0.8929954319849442
0.1100000000000001,-0.97,0.873476918877961
0.1200000000000001,-0.97,0.8505111914258128
0.13000000000000012,-0.97,0.8241888848627088
0.14000000000000012,-0.97,0.7946138813071368
0.15000000000000013,-0.97,0.7619028997865966
0.15999999999999992,-0.97,0.7261850356009237
0.16999999999999993,-0.97,0.687601250842119
0.17999999999999994,-0.97,0.6463038180813707
0.18999999999999995,-0.97,0.6024557194187838
0.19999999999999996,-0.97,0.5562300032674881
0.20999999999999996,-0.97,0.5078091014106121
0.21999999999999997,-0.97,0.4573841090263789
0.22999999999999998,-0.97,0.4051540305227416
0.24,-0.97,0.35132499415790114
0.25,-0.97,0.2961094385462415
0.26,-0.97,0.23972527426017431
0.27,-0.97,0.1823950238366625
0.28,-0.97,0.1243449435824274
0.29000000000000004,-0.97,0.06580413064367342
0.30000000000000004,-0.97,0.007003618864316521
0.31000000000000005,-0.97,-0.05182453299904866
0.32000000000000006,-0.97,-0.11044815710704367
0.33000000000000007,-0.97,-0.1686358927979004
0.3400000000000001,-0.97,-0.22615809966229491
0.3500000000000001,-0.97,-0.28278776382912985
0.3600000000000001,-0.97,-0.33830139388557157
0.3700000000000001,-0.97,-0.392479902895552
0.3800000000000001,-0.97,-0.4451094730358157
0.3900000000000001,-0.97,-0.4959823994371819
0.40000000000000013,-0.97,-0.5448979099007745
0.4099999999999999,-0.97,-0.5916629572541635
0.41999999999999993,-0.97,-0.6360929812203644
0.42999999999999994,-0.97,-0.6780126367929284
0.43999999999999995,-0.97,-0.7172564862425803
0.44999999999999996,-0.97,-0.7536696520243514
0.45999999999999996,-0.97,-0.7871084280084948
0.47,-0.97,-0.8174408466229242
0.48,-0.97,-0.8445471996689313
0.49,-0.97,-0.8683205107547602
0.5,-0.97,-0.8886669574825468
0.51,-0.97,-0.9055062417224637
0.52,-0.97,-0.9187719065127538
0.53,-0.97,-0.9284115983349948
0.54,-0.97,-0.9343872737295214
0.55,-0.97,-0.936675349435577
0.56,-0.97,-0.935266795463673
0.5700000000000001,-0.97,-0.9301671707328284
0.5800000000000001,-0.97,-0.9213966011320597
0.5900000000000001,-0.97,-0.9089897000926888
0.6000000000000001,-0.97,-0.8929954319849442
0.6100000000000001,-0.97,-0.8734769188779612
0.6200000000000001,-0.97,-0.8505111914258127
0.6300000000000001,-0.97,-0.8241888848627086
0.6400000000000001,-0.97,-0.794613881307137
0.6500000000000001,-0.97,-0.7619028997865966
0.6600000000000001,-0.97,-0.7261850356009238
0.6699999999999999,-0.97,-0.6876012508421192
0.6799999999999999,-0.97,-0.6463038180813709
0.69,-0.97,-0.6024557194187838