TITLE = "Solution" 
VARIABLES = "x", "y", "sol" 
ZONE STRANDID=1, SOLUTIONTIME= 1.549999999999989, I= 201, J =201, DATAPACKING=POINT 
-1.0,-1.0,-0.13346221834479033
-0.99,-1.0,-0.15165253182498717
-0.98,-1.0,-0.1692443420455223
-0.97,-1.0,-0.1861682221683888
-0.96,-1.0,-0.20235738137052706
-0.95,-1.0,-0.21774792843668966
-0.94,-1.0,-0.23227912390887834
-0.9299999999999999,-1.0,-0.2458936197972362
-0.92,-1.0,-0.25853768590636367
-0.91,-1.0,-0.2701614218838522
-0.9,-1.0,-0.28071895415417836
-0.89,-1.0,-0.290168616960749
-0.88,-1.0,-0.29847311680160676
-0.87,-1.0,-0.305599679609845
-0.86,-1.0,-0.3115201800978765
-0.85,-1.0,-0.3162112527550939
-0.84,-1.0,-0.3196543840608672
-0.83,-1.0,-0.321835985548949
-0.8200000000000001,-1.0,-0.3227474474349449
-0.81,-1.0,-0.32238517259519817
-0.8,-1.0,-0.3207505907629937
-0.79,-1.0,-0.3178501528860538
-0.78,-1.0,-0.31369530566759496
-0.77,-1.0,-0.3083024463914188
-0.76,-1.0,-0.3016928582093257
-0.75,-1.0,-0.29389262614623657
-0.74,-1.0,-0.2849325341545174
-0.73,-1.0,-0.274847943623783
-0.72,-1.0,-0.26367865382564737
-0.71,-1.0,-0.2514687448441797
-0.7,-1.0,-0.23826640361195356
-0.69,-1.0,-0.22412373373823674
-0.6799999999999999,-1.0,-0.20909654987984921
-0.6699999999999999,-1.0,-0.1932441574662126
-0.6599999999999999,-1.0,-0.1766291186479151
-0.6499999999999999,-1.0,-0.15931700539248259
-0.64,-1.0,-0.14137614070178242
-0.63,-1.0,-0.12287732897234709
-0.62,-1.0,-0.10389357656276971
-0.61,-1.0,-0.08449980367095938
-0.6,-1.0,-0.0647725486583478
-0.59,-1.0,-0.04478966598794456
-0.5800000000000001,-1.0,-0.024630018968338857
-0.5700000000000001,-1.0,-0.0043731685162504315
-0.56,-1.0,0.01590094083406108
-0.55,-1.0,0.03611229643534933
-0.54,-1.0,0.056181133300746186
-0.53,-1.0,0.07602824889972333
-0.52,-1.0,0.0955753157342963
-0.51,-1.0,0.1147451904618743
-0.5,-1.0,0.13346221834479038
-0.49,-1.0,0.15165253182498714
-0.48,-1.0,0.16924434204552236
-0.47,-1.0,0.1861682221683888
-0.45999999999999996,-1.0,0.20235738137052714
-0.44999999999999996,-1.0,0.21774792843668958
-0.43999999999999995,-1.0,0.2322791239088783
-0.42999999999999994,-1.0,0.24589361979723628
-0.42000000000000004,-1.0,0.2585376859063636
-0.41000000000000003,-1.0,0.27016142188385217
-0.4,-1.0,0.28071895415417847
-0.39,-1.0,0.290168616960749
-0.38,-1.0,0.29847311680160704
-0.37,-1.0,0.3055996796098449
-0.36,-1.0,0.3115201800978763
-0.35,-1.0,0.316211252755094
-0.33999999999999997,-1.0,0.3196543840608673
-0.32999999999999996,-1.0,0.3218359855489491
-0.31999999999999995,-1.0,0.32274744743494477
-0.30999999999999994,-1.0,0.32238517259519833
-0.29999999999999993,-1.0,0.3207505907629937
-0.29000000000000004,-1.0,0.3178501528860538
-0.28,-1.0,0.3136953056675946
-0.27,-1.0,0.30830244639141857
-0.26,-1.0,0.3016928582093256
-0.25,-1.0,0.29389262614623646
-0.24,-1.0,0.28493253415451747
-0.22999999999999998,-1.0,0.27484794362378295
-0.21999999999999997,-1.0,0.263678653825647
-0.20999999999999996,-1.0,0.25146874484417964
-0.19999999999999996,-1.0,0.23826640361195345
-0.18999999999999995,-1.0,0.22412373373823652
-0.17999999999999994,-1.0,0.2090965498798489
-0.16999999999999993,-1.0,0.19324415746621276
-0.16000000000000003,-1.0,0.17662911864791508
-0.15000000000000002,-1.0,0.15931700539248253
-0.14,-1.0,0.1413761407017824
-0.13,-1.0,0.12287732897234713
-0.12,-1.0,0.10389357656276978
-0.10999999999999999,-1.0,0.08449980367095945
-0.09999999999999998,-1.0,0.06477254865834794
-0.08999999999999997,-1.0,0.04478966598794466
-0.07999999999999996,-1.0,0.024630018968338947
-0.06999999999999995,-1.0,0.004373168516250454
-0.05999999999999994,-1.0,-0.015900940834060965
-0.04999999999999993,-1.0,-0.03611229643534926
-0.040000000000000036,-1.0,-0.0561811333007461
-0.030000000000000027,-1.0,-0.07602824889972326
-0.020000000000000018,-1.0,-0.0955753157342962
-0.010000000000000009,-1.0,-0.11474519046187426
0.0,-1.0,-0.13346221834479033
0.010000000000000009,-1.0,-0.15165253182498722
0.020000000000000018,-1.0,-0.16924434204552224
0.030000000000000027,-1.0,-0.18616822216838866
0.040000000000000036,-1.0,-0.2023573813705269
0.050000000000000044,-1.0,-0.21774792843668955
0.06000000000000005,-1.0,-0.23227912390887817
0.07000000000000006,-1.0,-0.24589361979723634
0.08000000000000007,-1.0,-0.25853768590636383
0.09000000000000008,-1.0,-0.27016142188385234
0.10000000000000009,-1.0,-0.2807189541541783
0.1100000000000001,-1.0,-0.2901686169607492
0.1200000000000001,-1.0,-0.2984731168016069
0.13000000000000012,-1.0,-0.305599679609845
0.14000000000000012,-1.0,-0.3115201800978764
0.15000000000000013,-1.0,-0.31621125275509404
0.15999999999999992,-1.0,-0.3196543840608672
0.16999999999999993,-1.0,-0.3218359855489489
0.17999999999999994,-1.0,-0.32274744743494493
0.18999999999999995,-1.0,-0.32238517259519817
0.19999999999999996,-1.0,-0.32075059076299367
0.20999999999999996,-1.0,-0.317850152886054
0.21999999999999997,-1.0,-0.3136953056675946
0.22999999999999998,-1.0,-0.3083024463914187
0.24,-1.0,-0.3016928582093254
0.25,-1.0,-0.29389262614623646
0.26,-1.0,-0.2849325341545176
0.27,-1.0,-0.27484794362378323
0.28,-1.0,-0.26367865382564704
0.29000000000000004,-1.0,-0.2514687448441797
0.30000000000000004,-1.0,-0.23826640361195364
0.31000000000000005,-1.0,-0.22412373373823669
0.32000000000000006,-1.0,-0.20909654987984905
0.33000000000000007,-1.0,-0.1932441574662127
0.3400000000000001,-1.0,-0.17662911864791497
0.3500000000000001,-1.0,-0.15931700539248278
0.3600000000000001,-1.0,-0.14137614070178234
0.3700000000000001,-1.0,-0.12287732897234724
0.3800000000000001,-1.0,-0.10389357656276973
0.3900000000000001,-1.0,-0.08449980367095941
0.40000000000000013,-1.0,-0.06477254865834793
0.4099999999999999,-1.0,-0.044789665987944614
0.41999999999999993,-1.0,-0.02463001896833889
0.42999999999999994,-1.0,-0.004373168516250416
0.43999999999999995,-1.0,0.01590094083406103
0.44999999999999996,-1.0,0.03611229643534926
0.45999999999999996,-1.0,0.056181133300746124
0.47,-1.0,0.07602824889972323
0.48,-1.0,0.09557531573429623
0.49,-1.0,0.11474519046187422
0.5,-1.0,0.13346221834479022
0.51,-1.0,0.1516525318249871
0.52,-1.0,0.1692443420455222
0.53,-1.0,0.18616822216838877
0.54,-1.0,0.202357381370527
0.55,-1.0,0.21774792843668947
0.56,-1.0,0.23227912390887828
0.5700000000000001,-1.0,0.24589361979723626
0.5800000000000001,-1.0,0.2585376859063637
0.5900000000000001,-1.0,0.2701614218838523
0.6000000000000001,-1.0,0.2807189541541784
0.6100000000000001,-1.0,0.29016861696074914
0.6200000000000001,-1.0,0.2984731168016066
0.6300000000000001,-1.0,0.30559967960984513
0.6400000000000001,-1.0,0.3115201800978764
0.6500000000000001,-1.0,0.316211252755094
0.6600000000000001,-1.0,0.3196543840608673
0.6699999999999999,-1.0,0.32183598554894893
0.6799999999999999,-1.0,0.32274744743494477
0.69,-1.0,0.32238517259519833
0.7,-1.0,0.3207505907629938
0.71,-1.0,0.31785015288605406
0.72,-1.0,0.3136953056675944
0.73,-1.0,0.3083024463914189
0.74,-1.0,0.30169285820932557
0.75,-1.0,0.29389262614623646
0.76,-1.0,0.2849325341545175
0.77,-1.0,0.2748479436237831
0.78,-1.0,0.26367865382564737
0.79,-1.0,0.25146874484417936
0.8,-1.0,0.23826640361195356
0.81,-1.0,0.22412373373823652
0.8200000000000001,-1.0,0.209096549879849
0.8300000000000001,-1.0,0.19324415746621285
0.8400000000000001,-1.0,0.17662911864791522
0.8500000000000001,-1.0,0.15931700539248259
0.8600000000000001,-1.0,0.1413761407017823
0.8700000000000001,-1.0,0.12287732897234716
0.8800000000000001,-1.0,0.10389357656276971
0.8900000000000001,-1.0,0.0844998036709592
0.9000000000000001,-1.0,0.06477254865834786
0.9100000000000001,-1.0,0.04478966598794458
0.9199999999999999,-1.0,0.0246300189683389
0.9299999999999999,-1.0,0.0043731685162504055
0.94,-1.0,-0.01590094083406105
0.95,-1.0,-0.036112296435349314
0.96,-1.0,-0.056181133300746144
0.97,-1.0,-0.07602824889972329
0.98,-1.0,-0.09557531573429623
0.99,-1.0,-0.11474519046187427
1.0,-1.0,-0.13346221834479033

-1.0,-0.99,-0.15165253182498722
-0.99,-0.99,-0.1671070611792484
-0.98,-0.99,-0.18190209530698945
-0.97,-0.99,-0.19597924496771627
-0.96,-0.99,-0.2092829540829559
-0.95,-0.99,-0.22176071899071687
-0.94,-0.99,-0.233363295653457
-0.9299999999999999,-0.99,-0.24404489400180157
-0.92,-0.99,-0.25376335864702776
-0.91,-0.99,-0.2624803352491248
-0.9,-0.99,-0.2701614218838521
-0.89,-0.99,-0.27677630481141724
-0.88,-0.99,-0.28229887811095744
-0.87,-0.99,-0.2867073467086836
-0.86,-0.99,-0.2899843123930773
-0.85,-0.99,-0.29211684247768654
-0.84,-0.99,-0.29309652084052706
-0.83,-0.99,-0.2929194811386733
-0.8200000000000001,-0.99,-0.29158642206694674
-0.81,-0.99,-0.28910260460048676
-0.8,-0.99,-0.2854778312320852
-0.79,-0.99,-0.2807264072862259
-0.78,-0.99,-0.2748670844625036
-0.77,-0.99,-0.26792298683123406
-0.76,-0.99,-0.259921519573311
-0.75,-0.99,-0.25089426082447897
-0.74,-0.99,-0.2408768370508574
-0.73,-0.99,-0.2299087824475557
-0.72,-0.99,-0.21803338291526453
-0.71,-0.99,-0.20529750523058451
-0.7,-0.99,-0.19175141208426816
-0.69,-0.99,-0.1774485637173423
-0.6799999999999999,-0.99,-0.16244540693796117
-0.6699999999999999,-0.99,-0.14680115235164354
-0.6599999999999999,-0.99,-0.13057754068406066
-0.6499999999999999,-0.99,-0.11383859911860175
-0.64,-0.99,-0.09665038861033048
-0.63,-0.99,-0.07908074317357672
-0.62,-0.99,-0.06119900217207189
-0.61,-0.99,-0.04307573666815828
-0.6,-0.99,-0.024782470911047738
-0.59,-0.99,-0.00639140006328528
-0.5800000000000001,-0.99,0.012024894720574029
-0.5700000000000001,-0.99,0.030393732738623176
-0.56,-0.99,0.048642620579128534
-0.55,-0.99,0.06669953821890762
-0.54,-0.99,0.08449322325345707
-0.53,-0.99,0.10195345213710713
-0.52,-0.99,0.11901131732327361
-0.51,-0.99,0.1355994992110643
-0.5,-0.99,0.15165253182498717
-0.49,-0.99,0.16710706117924845
-0.48,-0.99,0.18190209530698945
-0.47,-0.99,0.1959792449677163
-0.45999999999999996,-0.99,0.20928295408295583
-0.44999999999999996,-0.99,0.22176071899071684
-0.43999999999999995,-0.99,0.2333632956534571
-0.42999999999999994,-0.99,0.24404489400180157
-0.42000000000000004,-0.99,0.25376335864702776
-0.41000000000000003,-0.99,0.26248033524912484
-0.4,-0.99,0.27016142188385217
-0.39,-0.99,0.27677630481141746
-0.38,-0.99,0.28229887811095744
-0.37,-0.99,0.28670734670868336
-0.36,-0.99,0.28998431239307737
-0.35,-0.99,0.2921168424776866
-0.33999999999999997,-0.99,0.2930965208405272
-0.32999999999999996,-0.99,0.2929194811386733
-0.31999999999999995,-0.99,0.29158642206694685
-0.30999999999999994,-0.99,0.2891026046004867
-0.29999999999999993,-0.99,0.28547783123208514
-0.29000000000000004,-0.99,0.28072640728622567
-0.28,-0.99,0.2748670844625034
-0.27,-0.99,0.26792298683123394
-0.26,-0.99,0.2599215195733109
-0.25,-0.99,0.25089426082447897
-0.24,-0.99,0.24087683705085744
-0.22999999999999998,-0.99,0.2299087824475553
-0.21999999999999997,-0.99,0.2180333829152645
-0.20999999999999996,-0.99,0.2052975052305844
-0.19999999999999996,-0.99,0.1917514120842679
-0.18999999999999995,-0.99,0.17744856371734197
-0.17999999999999994,-0.99,0.1624454069379613
-0.16999999999999993,-0.99,0.14680115235164348
-0.16000000000000003,-0.99,0.1305775406840606
-0.15000000000000002,-0.99,0.1138385991186017
-0.14,-0.99,0.0966503886103305
-0.13,-0.99,0.07908074317357677
-0.12,-0.99,0.06119900217207194
-0.10999999999999999,-0.99,0.0430757366681584
-0.09999999999999998,-0.99,0.024782470911047835
-0.08999999999999997,-0.99,0.006391400063285372
-0.07999999999999996,-0.99,-0.012024894720574011
-0.06999999999999995,-0.99,-0.03039373273862307
-0.05999999999999994,-0.99,-0.048642620579128486
-0.04999999999999993,-0.99,-0.06669953821890753
-0.040000000000000036,-0.99,-0.08449322325345701
-0.030000000000000027,-0.99,-0.10195345213710702
-0.020000000000000018,-0.99,-0.11901131732327361
-0.010000000000000009,-0.99,-0.1355994992110642
0.0,-0.99,-0.15165253182498725
0.010000000000000009,-0.99,-0.16710706117924834
0.020000000000000018,-0.99,-0.1819020953069893
0.030000000000000027,-0.99,-0.19597924496771613
0.040000000000000036,-0.99,-0.20928295408295583
0.050000000000000044,-0.99,-0.22176071899071675
0.06000000000000005,-0.99,-0.2333632956534571
0.07000000000000006,-0.99,-0.2440448940018017
0.08000000000000007,-0.99,-0.25376335864702787
0.09000000000000008,-0.99,-0.26248033524912473
0.10000000000000009,-0.99,-0.2701614218838523
0.1100000000000001,-0.99,-0.27677630481141735
0.1200000000000001,-0.99,-0.2822988781109575
0.13000000000000012,-0.99,-0.2867073467086834
0.14000000000000012,-0.99,-0.2899843123930775
0.15000000000000013,-0.99,-0.29211684247768654
0.15999999999999992,-0.99,-0.29309652084052695
0.16999999999999993,-0.99,-0.29291948113867333
0.17999999999999994,-0.99,-0.2915864220669467
0.18999999999999995,-0.99,-0.2891026046004867
0.19999999999999996,-0.99,-0.28547783123208537
0.20999999999999996,-0.99,-0.28072640728622567
0.21999999999999997,-0.99,-0.2748670844625035
0.22999999999999998,-0.99,-0.2679229868312337
0.24,-0.99,-0.2599215195733109
0.25,-0.99,-0.2508942608244791
0.26,-0.99,-0.24087683705085763
0.27,-0.99,-0.22990878244755542
0.28,-0.99,-0.21803338291526447
0.29000000000000004,-0.99,-0.2052975052305846
0.30000000000000004,-0.99,-0.19175141208426807
0.31000000000000005,-0.99,-0.17744856371734213
0.32000000000000006,-0.99,-0.16244540693796133
0.33000000000000007,-0.99,-0.1468011523516434
0.3400000000000001,-0.99,-0.13057754068406077
0.3500000000000001,-0.99,-0.1138385991186017
0.3600000000000001,-0.99,-0.09665038861033062
0.3700000000000001,-0.99,-0.07908074317357675
0.3800000000000001,-0.99,-0.061199002172071894
0.3900000000000001,-0.99,-0.043075736668158386
0.40000000000000013,-0.99,-0.02478247091104778
0.4099999999999999,-0.99,-0.006391400063285311
0.41999999999999993,-0.99,0.012024894720574057
0.42999999999999994,-0.99,0.030393732738623128
0.43999999999999995,-0.99,0.04864262057912848
0.44999999999999996,-0.99,0.06669953821890755
0.45999999999999996,-0.99,0.08449322325345701
0.47,-0.99,0.10195345213710705
0.48,-0.99,0.11901131732327355
0.49,-0.99,0.13559949921106412
0.5,-0.99,0.15165253182498717
0.51,-0.99,0.16710706117924828
0.52,-0.99,0.18190209530698945
0.53,-0.99,0.19597924496771618
0.54,-0.99,0.20928295408295577
0.55,-0.99,0.22176071899071684
0.56,-0.99,0.23336329565345704
0.5700000000000001,-0.99,0.24404489400180163
0.5800000000000001,-0.99,0.2537633586470278
0.5900000000000001,-0.99,0.26248033524912484
0.6000000000000001,-0.99,0.2701614218838522
0.6100000000000001,-0.99,0.27677630481141713
0.6200000000000001,-0.99,0.2822988781109576
0.6300000000000001,-0.99,0.2867073467086835
0.6400000000000001,-0.99,0.28998431239307737
0.6500000000000001,-0.99,0.29211684247768666
0.6600000000000001,-0.99,0.293096520840527
0.6699999999999999,-0.99,0.2929194811386732
0.6799999999999999,-0.99,0.2915864220669469
0.69,-0.99,0.28910260460048687
0.7,-0.99,0.28547783123208537
0.71,-0.99,0.28072640728622544
0.72,-0.99,0.27486708446250374
0.73,-0.99,0.26792298683123383
0.74,-0.99,0.2599215195733109
0.75,-0.99,0.250894260824479
0.76,-0.99,0.24087683705085752
0.77,-0.99,0.22990878244755564
0.78,-0.99,0.2180333829152643
0.79,-0.99,0.20529750523058454
0.8,-0.99,0.19175141208426794
0.81,-0.99,0.17744856371734208
0.8200000000000001,-0.99,0.16244540693796145
0.8300000000000001,-0.99,0.14680115235164362
0.8400000000000001,-0.99,0.13057754068406063
0.8500000000000001,-0.99,0.11383859911860165
0.8600000000000001,-0.99,0.09665038861033057
0.8700000000000001,-0.99,0.07908074317357675
0.8800000000000001,-0.99,0.0611990021720717
0.8900000000000001,-0.99,0.04307573666815832
0.9000000000000001,-0.99,0.024782470911047745
0.9100000000000001,-0.99,0.006391400063285323
0.9199999999999999,-0.99,-0.01202489472057406
0.9299999999999999,-0.99,-0.03039373273862314
0.94,-0.99,-0.048642620579128534
0.95,-0.99,-0.06669953821890759
0.96,-0.99,-0.08449322325345704
0.97,-0.99,-0.10195345213710706
0.98,-0.99,-0.11901131732327361
0.99,-0.99,-0.1355994992110642
1.0,-0.99,-0.15165253182498722

-1.0,-0.98,-0.16924434204552227
-0.99,-0.98,-0.18190209530698945
-0.98,-0.98,-0.1938419641014424
-0.97,-0.98,-0.20501682722155656
-0.96,-0.98,-0.21538258258790605
-0.95,-0.98,-0.22489832129972329
-0.94,-0.98,-0.23352648908364013
-0.9299999999999999,-0.98,-0.2412330345032486
-0.92,-0.98,-0.2479875433445627
-0.91,-0.98,-0.2537633586470277
-0.9,-0.98,-0.2585376859063637
-0.89,-0.98,-0.26229168303406064
-0.88,-0.98,-0.265010534718494
-0.87,-0.98,-0.2666835108941898
-0.86,-0.98,-0.2673040090884936
-0.85,-0.98,-0.2668695804785104
-0.84,-0.98,-0.2653819395554926
-0.83,-0.98,-0.2628469573585248
-0.8200000000000001,-0.98,-0.2592746383042152
-0.81,-0.98,-0.25467908070383377
-0.8,-0.98,-0.24907842112371884
-0.79,-0.98,-0.2424947628085349
-0.78,-0.98,-0.23495408844986496
-0.77,-0.98,-0.22648615764439586
-0.76,-0.98,-0.21712438944638732
-0.75,-0.98,-0.20690573047793184
-0.74,-0.98,-0.1958705091175172
-0.73,-0.98,-0.18406227634233896
-0.72,-0.98,-0.17152763385249284
-0.71,-0.98,-0.158316050155353
-0.7,-0.98,-0.14447966533597323
-0.69,-0.98,-0.13007308528399256
-0.6799999999999999,-0.98,-0.11515316618913654
-0.6699999999999999,-0.98,-0.09977879015580923
-0.6599999999999999,-0.98,-0.08401063282233014
-0.6499999999999999,-0.98,-0.06791092390190853
-0.64,-0.98,-0.05154320159039606
-0.63,-0.98,-0.03497206181005528
-0.62,-0.98,-0.0182629032789653
-0.61,-0.98,-0.001481669412160238
-0.6,-0.98,0.015305411926904253
-0.59,-0.98,0.03203208979747084
-0.5800000000000001,-0.98,0.04863235164367675
-0.5700000000000001,-0.98,0.06504068381595302
-0.56,-0.98,0.0811923301234697
-0.55,-0.98,0.09702354739723629
-0.54,-0.98,0.11247185705526858
-0.53,-0.98,0.12747629167700736
-0.52,-0.98,0.1419776356138751
-0.51,-0.98,0.1559186586863865
-0.5,-0.98,0.16924434204552236
-0.49,-0.98,0.18190209530698945
-0.48,-0.98,0.1938419641014424
-0.47,-0.98,0.20501682722155645
-0.45999999999999996,-0.98,0.215382582587906
-0.44999999999999996,-0.98,0.22489832129972337
-0.43999999999999995,-0.98,0.23352648908364013
-0.42999999999999994,-0.98,0.24123303450324854
-0.42000000000000004,-0.98,0.24798754334456274
-0.41000000000000003,-0.98,0.25376335864702776
-0.4,-0.98,0.25853768590636383
-0.39,-0.98,0.2622916830340607
-0.38,-0.98,0.26501053471849384
-0.37,-0.98,0.26668351089418985
-0.36,-0.98,0.2673040090884936
-0.35,-0.98,0.2668695804785105
-0.33999999999999997,-0.98,0.26538193955549255
-0.32999999999999996,-0.98,0.26284695735852487
-0.31999999999999995,-0.98,0.25927463830421515
-0.30999999999999994,-0.98,0.2546790807038337
-0.29999999999999993,-0.98,0.24907842112371872
-0.29000000000000004,-0.98,0.24249476280853483
-0.28,-0.98,0.2349540884498649
-0.27,-0.98,0.22648615764439575
-0.26,-0.98,0.2171243894463873
-0.25,-0.98,0.2069057304779319
-0.24,-0.98,0.19587050911751686
-0.22999999999999998,-0.98,0.1840622763423389
-0.21999999999999997,-0.98,0.17152763385249276
-0.20999999999999996,-0.98,0.1583160501553528
-0.19999999999999996,-0.98,0.14447966533597295
-0.18999999999999995,-0.98,0.1300730852839927
-0.17999999999999994,-0.98,0.11515316618913651
-0.16999999999999993,-0.98,0.09977879015580918
-0.16000000000000003,-0.98,0.0840106328223301
-0.15000000000000002,-0.98,0.06791092390190853
-0.14,-0.98,0.051543201590396104
-0.13,-0.98,0.03497206181005533
-0.12,-0.98,0.018262903278965403
-0.10999999999999999,-0.98,0.0014816694121603247
-0.09999999999999998,-0.98,-0.01530541192690417
-0.08999999999999997,-0.98,-0.032032089797470846
-0.07999999999999996,-0.98,-0.048632351643676665
-0.06999999999999995,-0.98,-0.06504068381595295
-0.05999999999999994,-0.98,-0.08119233012346963
-0.04999999999999993,-0.98,-0.09702354739723623
-0.040000000000000036,-0.98,-0.11247185705526841
-0.030000000000000027,-0.98,-0.12747629167700736
-0.020000000000000018,-0.98,-0.14197763561387505
-0.010000000000000009,-0.98,-0.1559186586863866
0.0,-0.98,-0.16924434204552222
0.010000000000000009,-0.98,-0.18190209530698936
0.020000000000000018,-0.98,-0.19384196410144228
0.030000000000000027,-0.98,-0.20501682722155648
0.040000000000000036,-0.98,-0.21538258258790594
0.050000000000000044,-0.98,-0.2248983212997233
0.06000000000000005,-0.98,-0.23352648908364032
0.07000000000000006,-0.98,-0.24123303450324862
0.08000000000000007,-0.98,-0.2479875433445627
0.09000000000000008,-0.98,-0.2537633586470278
0.10000000000000009,-0.98,-0.25853768590636383
0.1100000000000001,-0.98,-0.2622916830340607
0.1200000000000001,-0.98,-0.2650105347184939
0.13000000000000012,-0.98,-0.26668351089419007
0.14000000000000012,-0.98,-0.2673040090884936
0.15000000000000013,-0.98,-0.26686958047851034
0.15999999999999992,-0.98,-0.26538193955549266
0.16999999999999993,-0.98,-0.26284695735852476
0.17999999999999994,-0.98,-0.2592746383042151
0.18999999999999995,-0.98,-0.2546790807038339
0.19999999999999996,-0.98,-0.24907842112371875
0.20999999999999996,-0.98,-0.2424947628085349
0.21999999999999997,-0.98,-0.23495408844986473
0.22999999999999998,-0.98,-0.22648615764439578
0.24,-0.98,-0.21712438944638737
0.25,-0.98,-0.20690573047793204
0.26,-0.98,-0.1958705091175169
0.27,-0.98,-0.1840622763423389
0.28,-0.98,-0.17152763385249287
0.29000000000000004,-0.98,-0.15831605015535294
0.30000000000000004,-0.98,-0.1444796653359731
0.31000000000000005,-0.98,-0.1300730852839927
0.32000000000000006,-0.98,-0.11515316618913643
0.33000000000000007,-0.98,-0.09977879015580932
0.3400000000000001,-0.98,-0.08401063282233008
0.3500000000000001,-0.98,-0.06791092390190864
0.3600000000000001,-0.98,-0.05154320159039609
0.3700000000000001,-0.98,-0.034972061810055265
0.3800000000000001,-0.98,-0.018262903278965403
0.3900000000000001,-0.98,-0.0014816694121602622
0.40000000000000013,-0.98,0.015305411926904239
0.4099999999999999,-0.98,0.03203208979747089
0.41999999999999993,-0.98,0.0486323516436767
0.42999999999999994,-0.98,0.06504068381595296
0.43999999999999995,-0.98,0.08119233012346963
0.44999999999999996,-0.98,0.09702354739723625
0.45999999999999996,-0.98,0.11247185705526848
0.47,-0.98,0.1274762916770073
0.48,-0.98,0.14197763561387494
0.49,-0.98,0.1559186586863865
0.5,-0.98,0.1692443420455222
0.51,-0.98,0.18190209530698942
0.52,-0.98,0.1938419641014423
0.53,-0.98,0.20501682722155648
0.54,-0.98,0.21538258258790605
0.55,-0.98,0.22489832129972334
0.56,-0.98,0.2335264890836402
0.5700000000000001,-0.98,0.24123303450324857
0.5800000000000001,-0.98,0.24798754334456266
0.5900000000000001,-0.98,0.25376335864702776
0.6000000000000001,-0.98,0.25853768590636367
0.6100000000000001,-0.98,0.2622916830340608
0.6200000000000001,-0.98,0.2650105347184939
0.6300000000000001,-0.98,0.2666835108941899
0.6400000000000001,-0.98,0.2673040090884936
0.6500000000000001,-0.98,0.2668695804785104
0.6600000000000001,-0.98,0.2653819395554926
0.6699999999999999,-0.98,0.2628469573585249
0.6799999999999999,-0.98,0.2592746383042153
0.69,-0.98,0.25467908070383394
0.7,-0.98,0.24907842112371859
0.71,-0.98,0.24249476280853507
0.72,-0.98,0.23495408844986482
0.73,-0.98,0.22648615764439578
0.74,-0.98,0.21712438944638734
0.75,-0.98,0.20690573047793195
0.76,-0.98,0.19587050911751713
0.77,-0.98,0.18406227634233874
0.78,-0.98,0.17152763385249287
0.79,-0.98,0.15831605015535283
0.8,-0.98,0.14447966533597303
0.81,-0.98,0.13007308528399278
0.8200000000000001,-0.98,0.11515316618913665
0.8300000000000001,-0.98,0.0997787901558092
0.8400000000000001,-0.98,0.08401063282233005
0.8500000000000001,-0.98,0.06791092390190862
0.8600000000000001,-0.98,0.05154320159039608
0.8700000000000001,-0.98,0.034972061810055105
0.8800000000000001,-0.98,0.018262903278965334
0.8900000000000001,-0.98,0.0014816694121602275
0.9000000000000001,-0.98,-0.015305411926904218
0.9100000000000001,-0.98,-0.032032089797470895
0.9199999999999999,-0.98,-0.04863235164367671
0.9299999999999999,-0.98,-0.06504068381595299
0.94,-0.98,-0.08119233012346967
0.95,-0.98,-0.09702354739723626
0.96,-0.98,-0.11247185705526852
0.97,-0.98,-0.12747629167700733
0.98,-0.98,-0.141977635613875
0.99,-0.98,-0.1559186586863866
1.0,-0.98,-0.16924434204552227

-1.0,-0.97,-0.18616822216838874
-0.99,-0.97,-0.1959792449677163
-0.98,-0.97,-0.2050168272215565
-0.97,-0.97,-0.21324530172163214
-0.96,-0.97,-0.22063219443832394
-0.95,-0.97,-0.2271483526808293
-0.94,-0.97,-0.23276806014951484
-0.9299999999999999,-0.97,-0.23746913842640127
-0.92,-0.97,-0.2412330345032485
-0.91,-0.97,-0.24404489400180163
-0.9,-0.97,-0.24589361979723623
-0.89,-0.97,-0.24677191581344038
-0.88,-0.97,-0.246676315817293
-0.87,-0.97,-0.24560719709830411
-0.86,-0.97,-0.24356877897962287
-0.85,-0.97,-0.2405691061662996
-0.84,-0.97,-0.2366200169965082
-0.83,-0.97,-0.23173709672103457
-0.8200000000000001,-0.97,-0.22593961599541185
-0.81,-0.97,-0.2192504548274472
-0.8,-0.97,-0.21169601228028345
-0.79,-0.97,-0.203306102287358
-0.78,-0.97,-0.19411383599042725
-0.77,-0.97,-0.18415549106501827
-0.76,-0.97,-0.1734703685490167
-0.75,-0.97,-0.1621006377394255
-0.74,-0.97,-0.15009116976941334
-0.73,-0.97,-0.13748936052245436
-0.72,-0.97,-0.12434494358242738
-0.71,-0.97,-0.11070979395788155
-0.7,-0.97,-0.09663772335507743
-0.69,-0.97,-0.08218426780776748
-0.6799999999999999,-0.97,-0.0674064685018406
-0.6699999999999999,-0.97,-0.05236264665982317
-0.6599999999999999,-0.97,-0.0371121733736571
-0.6499999999999999,-0.97,-0.02171523529412446
-0.64,-0.97,-0.006232597101633326
-0.63,-0.97,0.00927463830421536
-0.62,-0.97,0.024745270949856357
-0.61,-0.97,0.04011824531609723
-0.6,-0.97,0.05533289129635833
-0.59,-0.97,0.07032916363386628
-0.5800000000000001,-0.97,0.08504787889284983
-0.5700000000000001,-0.97,0.09943094902852329
-0.56,-0.97,0.11342161063406075
-0.55,-0.97,0.12696464895983062
-0.54,-0.97,0.1400066158207866
-0.53,-0.97,0.15249604053203653
-0.52,-0.97,0.16438363304012027
-0.51,-0.97,0.17562247844833317
-0.5,-0.97,0.1861682221683888
-0.49,-0.97,0.1959792449677163
-0.48,-0.97,0.20501682722155648
-0.47,-0.97,0.21324530172163209
-0.45999999999999996,-0.97,0.22063219443832402
-0.44999999999999996,-0.97,0.22714835268082934
-0.43999999999999995,-0.97,0.2327680601495148
-0.42999999999999994,-0.97,0.23746913842640133
-0.42000000000000004,-0.97,0.24123303450324857
-0.41000000000000003,-0.97,0.24404489400180174
-0.4,-0.97,0.24589361979723623
-0.39,-0.97,0.24677191581344035
-0.38,-0.97,0.246676315817293
-0.37,-0.97,0.2456071970983041
-0.36,-0.97,0.24356877897962298
-0.35,-0.97,0.24056910616629962
-0.33999999999999997,-0.97,0.23662001699650825
-0.32999999999999996,-0.97,0.23173709672103454
-0.31999999999999995,-0.97,0.22593961599541176
-0.30999999999999994,-0.97,0.21925045482744715
-0.29999999999999993,-0.97,0.2116960122802834
-0.29000000000000004,-0.97,0.2033061022873579
-0.28,-0.97,0.1941138359904271
-0.27,-0.97,0.18415549106501827
-0.26,-0.97,0.17347036854901676
-0.25,-0.97,0.16210063773942524
-0.24,-0.97,0.15009116976941328
-0.22999999999999998,-0.97,0.13748936052245428
-0.21999999999999997,-0.97,0.12434494358242726
-0.20999999999999996,-0.97,0.11070979395788129
-0.19999999999999996,-0.97,0.09663772335507755
-0.18999999999999995,-0.97,0.08218426780776746
-0.17999999999999994,-0.97,0.06740646850184054
-0.16999999999999993,-0.97,0.05236264665982311
-0.16000000000000003,-0.97,0.0371121733736571
-0.15000000000000002,-0.97,0.021715235294124495
-0.14,-0.97,0.006232597101633368
-0.13,-0.97,-0.009274638304215273
-0.12,-0.97,-0.024745270949856287
-0.10999999999999999,-0.97,-0.04011824531609716
-0.09999999999999998,-0.97,-0.05533289129635835
-0.08999999999999997,-0.97,-0.07032916363386624
-0.07999999999999996,-0.97,-0.08504787889284979
-0.06999999999999995,-0.97,-0.09943094902852319
-0.05999999999999994,-0.97,-0.11342161063406073
-0.04999999999999993,-0.97,-0.1269646489598305
-0.040000000000000036,-0.97,-0.14000661582078655
-0.030000000000000027,-0.97,-0.15249604053203647
-0.020000000000000018,-0.97,-0.16438363304012032
-0.010000000000000009,-0.97,-0.17562247844833304
0.0,-0.97,-0.18616822216838871
0.010000000000000009,-0.97,-0.19597924496771618
0.020000000000000018,-0.97,-0.20501682722155648
0.030000000000000027,-0.97,-0.21324530172163203
0.040000000000000036,-0.97,-0.22063219443832396
0.050000000000000044,-0.97,-0.2271483526808295
0.06000000000000005,-0.97,-0.2327680601495148
0.07000000000000006,-0.97,-0.2374691384264013
0.08000000000000007,-0.97,-0.24123303450324862
0.09000000000000008,-0.97,-0.24404489400180174
0.10000000000000009,-0.97,-0.24589361979723628
0.1100000000000001,-0.97,-0.24677191581344032
0.1200000000000001,-0.97,-0.2466763158172932
0.13000000000000012,-0.97,-0.24560719709830403
0.14000000000000012,-0.97,-0.24356877897962284
0.15000000000000013,-0.97,-0.24056910616629965
0.15999999999999992,-0.97,-0.23662001699650814
0.16999999999999993,-0.97,-0.23173709672103446
0.17999999999999994,-0.97,-0.225939615995412
0.18999999999999995,-0.97,-0.2192504548274471
0.19999999999999996,-0.97,-0.21169601228028348
0.20999999999999996,-0.97,-0.20330610228735782
0.21999999999999997,-0.97,-0.19411383599042714
0.22999999999999998,-0.97,-0.1841554910650183
0.24,-0.97,-0.17347036854901687
0.25,-0.97,-0.16210063773942524
0.26,-0.97,-0.15009116976941328
0.27,-0.97,-0.13748936052245442
0.28,-0.97,-0.12434494358242733
0.29000000000000004,-0.97,-0.11070979395788141
0.30000000000000004,-0.97,-0.09663772335507759
0.31000000000000005,-0.97,-0.08218426780776739
0.32000000000000006,-0.97,-0.06740646850184068
0.33000000000000007,-0.97,-0.05236264665982312
0.3400000000000001,-0.97,-0.03711217337365719
0.3500000000000001,-0.97,-0.0217152352941245
0.3600000000000001,-0.97,-0.006232597101633295
0.3700000000000001,-0.97,0.009274638304215255
0.3800000000000001,-0.97,0.024745270949856357
0.3900000000000001,-0.97,0.040118245316097235
0.40000000000000013,-0.97,0.05533289129635841
0.4099999999999999,-0.97,0.07032916363386624
0.41999999999999993,-0.97,0.08504787889284976
0.42999999999999994,-0.97,0.09943094902852322
0.43999999999999995,-0.97,0.1134216106340607
0.44999999999999996,-0.97,0.1269646489598305
0.45999999999999996,-0.97,0.14000661582078655
0.47,-0.97,0.15249604053203641
0.48,-0.97,0.16438363304012027
0.49,-0.97,0.175622478448333
0.5,-0.97,0.18616822216838874
0.51,-0.97,0.19597924496771624
0.52,-0.97,0.20501682722155645
0.53,-0.97,0.21324530172163214
0.54,-0.97,0.22063219443832402
0.55,-0.97,0.22714835268082942
0.56,-0.97,0.23276806014951484
0.5700000000000001,-0.97,0.23746913842640122
0.5800000000000001,-0.97,0.24123303450324857