TITLE = "Solution" 
VARIABLES = "x", "y", "sol" 
ZONE STRANDID=1, SOLUTIONTIME= 1.1999999999999964, I= 201, J =201, DATAPACKING=POINT 
-1.0,-1.0,0.7157456122494044
-0.99,-1.0,0.6958795810986065
-0.98,-1.0,0.673267231158353
-0.97,-1.0,0.6479978030432565
-0.96,-1.0,0.6201710236415849
-0.95,-1.0,0.5898967125387903
-0.94,-1.0,0.5572943486097773
-0.9299999999999999,-1.0,0.5224925984903719
-0.92,-1.0,0.4856288087888869
-0.91,-1.0,0.44684846404181056
-0.9,-1.0,0.4063046125528067
-0.89,-1.0,0.3641572623809769
-0.88,-1.0,0.3205727498621578
-0.87,-1.0,0.27572308315539107
-0.86,-1.0,0.22978526340530442
-0.85,-1.0,0.18294058619945833
-0.84,-1.0,0.1353739260774867
-0.83,-1.0,0.08727300691575121
-0.8200000000000001,-1.0,0.0388276610669634
-0.81,-1.0,-0.009770919821384729
-0.8,-1.0,-0.05833093935310638
-0.79,-1.0,-0.10666075331607276
-0.78,-1.0,-0.1545696260143634
-0.77,-1.0,-0.20186848301492066
-0.76,-1.0,-0.24837065733795505
-0.75,-1.0,-0.2938926261462369
-0.74,-1.0,-0.3382547350258885
-0.73,-1.0,-0.38128190700028164
-0.72,-1.0,-0.42280433347887914
-0.71,-1.0,-0.4626581444141612
-0.7,-1.0,-0.5006860550218413
-0.69,-1.0,-0.5367379865120505
-0.6799999999999999,-1.0,-0.5706716583817577
-0.6699999999999999,-1.0,-0.6023531499309132
-0.6599999999999999,-1.0,-0.6316574287862693
-0.6499999999999999,-1.0,-0.658468844347035
-0.64,-1.0,-0.6826815842049636
-0.63,-1.0,-0.7042000917375835
-0.62,-1.0,-0.7229394432265341
-0.61,-1.0,-0.7388256830126856
-0.6,-1.0,-0.7517961153653326
-0.59,-1.0,-0.7617995519136076
-0.5800000000000001,-1.0,-0.7687965136635894
-0.5700000000000001,-1.0,-0.7727593868038587
-0.56,-1.0,-0.7736725316845949
-0.55,-1.0,-0.7715323445401304
-0.54,-1.0,-0.766347271711366
-0.53,-1.0,-0.7581377763119217
-0.52,-1.0,-0.7469362574695788
-0.51,-1.0,-0.7327869224617195
-0.5,-1.0,-0.7157456122494046
-0.49,-1.0,-0.6958795810986067
-0.48,-1.0,-0.673267231158353
-0.47,-1.0,-0.6479978030432567
-0.45999999999999996,-1.0,-0.6201710236415852
-0.44999999999999996,-1.0,-0.5898967125387902
-0.43999999999999995,-1.0,-0.5572943486097773
-0.42999999999999994,-1.0,-0.5224925984903719
-0.42000000000000004,-1.0,-0.4856288087888868
-0.41000000000000003,-1.0,-0.4468484640418106
-0.4,-1.0,-0.4063046125528066
-0.39,-1.0,-0.36415726238097695
-0.38,-1.0,-0.320572749862158
-0.37,-1.0,-0.2757230831553911
-0.36,-1.0,-0.2297852634053047
-0.35,-1.0,-0.18294058619945858
-0.33999999999999997,-1.0,-0.135373926077487
-0.32999999999999996,-1.0,-0.08727300691575139
-0.31999999999999995,-1.0,-0.038827661066963615
-0.30999999999999994,-1.0,0.009770919821384432
-0.29999999999999993,-1.0,0.058330939353106175
-0.29000000000000004,-1.0,0.10666075331607255
-0.28,-1.0,0.15456962601436336
-0.27,-1.0,0.2018684830149205
-0.26,-1.0,0.24837065733795485
-0.25,-1.0,0.29389262614623657
-0.24,-1.0,0.33825473502588854
-0.22999999999999998,-1.0,0.3812819070002815
-0.21999999999999997,-1.0,0.4228043334788789
-0.20999999999999996,-1.0,0.46265814441416137
-0.19999999999999996,-1.0,0.5006860550218413
-0.18999999999999995,-1.0,0.5367379865120506
-0.17999999999999994,-1.0,0.5706716583817577
-0.16999999999999993,-1.0,0.6023531499309134
-0.16000000000000003,-1.0,0.6316574287862694
-0.15000000000000002,-1.0,0.6584688443470352
-0.14,-1.0,0.6826815842049639
-0.13,-1.0,0.7042000917375831
-0.12,-1.0,0.7229394432265341
-0.10999999999999999,-1.0,0.7388256830126854
-0.09999999999999998,-1.0,0.7517961153653326
-0.08999999999999997,-1.0,0.7617995519136077
-0.07999999999999996,-1.0,0.7687965136635891
-0.06999999999999995,-1.0,0.7727593868038584
-0.05999999999999994,-1.0,0.7736725316845948
-0.04999999999999993,-1.0,0.7715323445401305
-0.040000000000000036,-1.0,0.7663472717113661
-0.030000000000000027,-1.0,0.7581377763119225
-0.020000000000000018,-1.0,0.7469362574695794
-0.010000000000000009,-1.0,0.7327869224617198
0.0,-1.0,0.7157456122494041
0.010000000000000009,-1.0,0.6958795810986064
0.020000000000000018,-1.0,0.6732672311583527
0.030000000000000027,-1.0,0.6479978030432565
0.040000000000000036,-1.0,0.6201710236415848
0.050000000000000044,-1.0,0.5898967125387901
0.06000000000000005,-1.0,0.5572943486097773
0.07000000000000006,-1.0,0.5224925984903717
0.08000000000000007,-1.0,0.4856288087888867
0.09000000000000008,-1.0,0.4468484640418109
0.10000000000000009,-1.0,0.4063046125528067
0.1100000000000001,-1.0,0.3641572623809769
0.1200000000000001,-1.0,0.32057274986215795
0.13000000000000012,-1.0,0.2757230831553912
0.14000000000000012,-1.0,0.22978526340530447
0.15000000000000013,-1.0,0.1829405861994584
0.15999999999999992,-1.0,0.13537392607748683
0.16999999999999993,-1.0,0.08727300691575121
0.17999999999999994,-1.0,0.0388276610669636
0.18999999999999995,-1.0,-0.009770919821384508
0.19999999999999996,-1.0,-0.058330939353106286
0.20999999999999996,-1.0,-0.10666075331607258
0.21999999999999997,-1.0,-0.15456962601436341
0.22999999999999998,-1.0,-0.2018684830149206
0.24,-1.0,-0.2483706573379551
0.25,-1.0,-0.2938926261462368
0.26,-1.0,-0.3382547350258882
0.27,-1.0,-0.38128190700028164
0.28,-1.0,-0.422804333478879
0.29000000000000004,-1.0,-0.4626581444141611
0.30000000000000004,-1.0,-0.5006860550218415
0.31000000000000005,-1.0,-0.5367379865120505
0.32000000000000006,-1.0,-0.5706716583817583
0.33000000000000007,-1.0,-0.6023531499309134
0.3400000000000001,-1.0,-0.6316574287862693
0.3500000000000001,-1.0,-0.6584688443470352
0.3600000000000001,-1.0,-0.6826815842049633
0.3700000000000001,-1.0,-0.7042000917375831
0.3800000000000001,-1.0,-0.7229394432265347
0.3900000000000001,-1.0,-0.738825683012686
0.40000000000000013,-1.0,-0.751796115365333
0.4099999999999999,-1.0,-0.7617995519136078
0.41999999999999993,-1.0,-0.7687965136635895
0.42999999999999994,-1.0,-0.772759386803858
0.43999999999999995,-1.0,-0.7736725316845952
0.44999999999999996,-1.0,-0.7715323445401303
0.45999999999999996,-1.0,-0.7663472717113663
0.47,-1.0,-0.7581377763119217
0.48,-1.0,-0.7469362574695789
0.49,-1.0,-0.7327869224617197
0.5,-1.0,-0.7157456122494044
0.51,-1.0,-0.6958795810986071
0.52,-1.0,-0.6732672311583529
0.53,-1.0,-0.6479978030432569
0.54,-1.0,-0.6201710236415849
0.55,-1.0,-0.5898967125387905
0.56,-1.0,-0.5572943486097773
0.5700000000000001,-1.0,-0.5224925984903719
0.5800000000000001,-1.0,-0.48562880878888676
0.5900000000000001,-1.0,-0.4468484640418109
0.6000000000000001,-1.0,-0.40630461255280653
0.6100000000000001,-1.0,-0.3641572623809769
0.6200000000000001,-1.0,-0.3205727498621578
0.6300000000000001,-1.0,-0.2757230831553912
0.6400000000000001,-1.0,-0.22978526340530453
0.6500000000000001,-1.0,-0.18294058619945835
0.6600000000000001,-1.0,-0.13537392607748677
0.6699999999999999,-1.0,-0.08727300691575124
0.6799999999999999,-1.0,-0.03882766106696346
0.69,-1.0,0.00977091982138462
0.7,-1.0,0.058330939353106306
0.71,-1.0,0.1066607533160726
0.72,-1.0,0.1545696260143634
0.73,-1.0,0.2018684830149206
0.74,-1.0,0.2483706573379552
0.75,-1.0,0.2938926261462367
0.76,-1.0,0.33825473502588843
0.77,-1.0,0.3812819070002818
0.78,-1.0,0.422804333478879
0.79,-1.0,0.46265814441416125
0.8,-1.0,0.5006860550218413
0.81,-1.0,0.5367379865120507
0.8200000000000001,-1.0,0.5706716583817575
0.8300000000000001,-1.0,0.6023531499309134
0.8400000000000001,-1.0,0.6316574287862697
0.8500000000000001,-1.0,0.6584688443470355
0.8600000000000001,-1.0,0.6826815842049637
0.8700000000000001,-1.0,0.7042000917375836
0.8800000000000001,-1.0,0.7229394432265346
0.8900000000000001,-1.0,0.7388256830126855
0.9000000000000001,-1.0,0.751796115365333
0.9100000000000001,-1.0,0.7617995519136078
0.9199999999999999,-1.0,0.7687965136635893
0.9299999999999999,-1.0,0.7727593868038587
0.94,-1.0,0.7736725316845947
0.95,-1.0,0.7715323445401306
0.96,-1.0,0.7663472717113657
0.97,-1.0,0.7581377763119224
0.98,-1.0,0.746936257469579
0.99,-1.0,0.7327869224617196
1.0,-1.0,0.7157456122494044

-1.0,-0.99,0.6958795810986065
-0.99,-0.99,0.6757214287726366
-0.98,-0.99,0.6528965126750563
-0.97,-0.99,0.6274949123219917
-0.96,-0.99,0.599616876225149
-0.95,-0.99,0.5693724262567383
-0.94,-0.99,0.5368809234434114
-0.9299999999999999,-0.99,0.5022705969028157
-0.92,-0.99,0.4656780377818528
-0.91,-0.99,0.4272476601938244
-0.9,-0.99,0.3871311312818992
-0.89,-0.99,0.3454867726581951
-0.88,-0.99,0.30247893558070177
-0.87,-0.99,0.2582773523339521
-0.86,-0.99,0.21305646637323883
-0.85,-0.99,0.16699474387599106
-0.84,-0.99,0.1202739694173062
-0.83,-0.99,0.07307852854928107
-0.8200000000000001,-0.99,0.025594680115475842
-0.81,-0.99,-0.021990178827647998
-0.8,-0.99,-0.06948825258129632
-0.79,-0.99,-0.11671208794816888
-0.78,-0.99,-0.16347531402459134
-0.77,-0.99,-0.20959337772132533
-0.76,-0.99,-0.25488427211029974
-0.75,-0.99,-0.29916925472280187
-0.74,-0.99,-0.3422735529643445
-0.73,-0.99,-0.38402705386224945
-0.72,-0.99,-0.42426497542383196
-0.71,-0.99,-0.46282851695564664
-0.7,-0.99,-0.4995654857772741
-0.69,-0.99,-0.5343308978562995
-0.6799999999999999,-0.99,-0.5669875499940527
-0.6699999999999999,-0.99,-0.5974065613039518
-0.6599999999999999,-0.99,-0.62546788184548
-0.6499999999999999,-0.99,-0.6510607664064593
-0.64,-0.99,-0.674084211563803
-0.63,-0.99,-0.6944473542978864
-0.62,-0.99,-0.7120698305873749
-0.61,-0.99,-0.7268820925692954
-0.6,-0.99,-0.7388256830126855
-0.59,-0.99,-0.7478534660225716
-0.5800000000000001,-0.99,-0.7539298130638165
-0.5700000000000001,-0.99,-0.7570307435706662
-0.56,-0.99,-0.7571440195870909
-0.55,-0.99,-0.7542691940644051
-0.54,-0.99,-0.7484176126255631
-0.53,-0.99,-0.739612368789172
-0.52,-0.99,-0.7278882128299198
-0.51,-0.99,-0.7132914146351212
-0.5,-0.99,-0.6958795810986067
-0.49,-0.99,-0.6757214287726364
-0.48,-0.99,-0.6528965126750563
-0.47,-0.99,-0.6274949123219921
-0.45999999999999996,-0.99,-0.5996168762251488
-0.44999999999999996,-0.99,-0.5693724262567383
-0.43999999999999995,-0.99,-0.5368809234434114
-0.42999999999999994,-0.99,-0.5022705969028156
-0.42000000000000004,-0.99,-0.4656780377818529
-0.41000000000000003,-0.99,-0.4272476601938242
-0.4,-0.99,-0.3871311312818992
-0.39,-0.99,-0.34548677265819533
-0.38,-0.99,-0.3024789355807018
-0.37,-0.99,-0.2582773523339523
-0.36,-0.99,-0.21305646637323905
-0.35,-0.99,-0.16699474387599134
-0.33999999999999997,-0.99,-0.12027396941730639
-0.32999999999999996,-0.99,-0.07307852854928129
-0.31999999999999995,-0.99,-0.025594680115476116
-0.30999999999999994,-0.99,0.021990178827647807
-0.29999999999999993,-0.99,0.06948825258129612
-0.29000000000000004,-0.99,0.11671208794816883
-0.28,-0.99,0.16347531402459117
-0.27,-0.99,0.20959337772132516
-0.26,-0.99,0.2548842721102993
-0.25,-0.99,0.2991692547228018
-0.24,-0.99,0.34227355296434425
-0.22999999999999998,-0.99,0.3840270538622493
-0.21999999999999997,-0.99,0.42426497542383207
-0.20999999999999996,-0.99,0.46282851695564675
-0.19999999999999996,-0.99,0.4995654857772741
-0.18999999999999995,-0.99,0.5343308978562994
-0.17999999999999994,-0.99,0.5669875499940529
-0.16999999999999993,-0.99,0.5974065613039516
-0.16000000000000003,-0.99,0.6254678818454802
-0.15000000000000002,-0.99,0.6510607664064596
-0.14,-0.99,0.6740842115638026
-0.13,-0.99,0.6944473542978866
-0.12,-0.99,0.7120698305873747
-0.10999999999999999,-0.99,0.7268820925692954
-0.09999999999999998,-0.99,0.7388256830126855
-0.08999999999999997,-0.99,0.7478534660225715
-0.07999999999999996,-0.99,0.7539298130638161
-0.06999999999999995,-0.99,0.757030743570666
-0.05999999999999994,-0.99,0.7571440195870911
-0.04999999999999993,-0.99,0.7542691940644051
-0.040000000000000036,-0.99,0.7484176126255638
-0.030000000000000027,-0.99,0.7396123687891725
-0.020000000000000018,-0.99,0.72788821282992
-0.010000000000000009,-0.99,0.7132914146351206
0.0,-0.99,0.6958795810986064
0.010000000000000009,-0.99,0.6757214287726363
0.020000000000000018,-0.99,0.6528965126750562
0.030000000000000027,-0.99,0.6274949123219917
0.040000000000000036,-0.99,0.5996168762251488
0.050000000000000044,-0.99,0.5693724262567383
0.06000000000000005,-0.99,0.5368809234434113
0.07000000000000006,-0.99,0.5022705969028154
0.08000000000000007,-0.99,0.465678037781853
0.09000000000000008,-0.99,0.4272476601938243
0.10000000000000009,-0.99,0.3871311312818992
0.1100000000000001,-0.99,0.3454867726581953
0.1200000000000001,-0.99,0.3024789355807019
0.13000000000000012,-0.99,0.25827735233395216
0.14000000000000012,-0.99,0.21305646637323888
0.15000000000000013,-0.99,0.1669947438759912
0.15999999999999992,-0.99,0.12027396941730623
0.16999999999999993,-0.99,0.07307852854928126
0.17999999999999994,-0.99,0.025594680115476037
0.18999999999999995,-0.99,-0.021990178827647908
0.19999999999999996,-0.99,-0.06948825258129614
0.20999999999999996,-0.99,-0.11671208794816888
0.21999999999999997,-0.99,-0.1634753140245913
0.22999999999999998,-0.99,-0.20959337772132536
0.24,-0.99,-0.25488427211029957
0.25,-0.99,-0.29916925472280154
0.26,-0.99,-0.3422735529643445
0.27,-0.99,-0.3840270538622492
0.28,-0.99,-0.4242649754238319
0.29000000000000004,-0.99,-0.46282851695564686
0.30000000000000004,-0.99,-0.4995654857772741
0.31000000000000005,-0.99,-0.5343308978563
0.32000000000000006,-0.99,-0.5669875499940529
0.33000000000000007,-0.99,-0.5974065613039516
0.3400000000000001,-0.99,-0.6254678818454803
0.3500000000000001,-0.99,-0.6510607664064589
0.3600000000000001,-0.99,-0.6740842115638027
0.3700000000000001,-0.99,-0.694447354297887
0.3800000000000001,-0.99,-0.7120698305873753
0.3900000000000001,-0.99,-0.7268820925692956
0.40000000000000013,-0.99,-0.7388256830126856
0.4099999999999999,-0.99,-0.747853466022572
0.41999999999999993,-0.99,-0.7539298130638159
0.42999999999999994,-0.99,-0.7570307435706662
0.43999999999999995,-0.99,-0.7571440195870907
0.44999999999999996,-0.99,-0.7542691940644052
0.45999999999999996,-0.99,-0.7484176126255631
0.47,-0.99,-0.7396123687891722
0.48,-0.99,-0.72788821282992
0.49,-0.99,-0.7132914146351209
0.5,-0.99,-0.6958795810986071
0.51,-0.99,-0.6757214287726363
0.52,-0.99,-0.6528965126750568
0.53,-0.99,-0.6274949123219917
0.54,-0.99,-0.5996168762251493
0.55,-0.99,-0.5693724262567385
0.56,-0.99,-0.5368809234434114
0.5700000000000001,-0.99,-0.5022705969028155
0.5800000000000001,-0.99,-0.4656780377818532
0.5900000000000001,-0.99,-0.42724766019382415
0.6000000000000001,-0.99,-0.38713113128189913
0.6100000000000001,-0.99,-0.34548677265819505
0.6200000000000001,-0.99,-0.30247893558070194
0.6300000000000001,-0.99,-0.25827735233395216
0.6400000000000001,-0.99,-0.21305646637323894
0.6500000000000001,-0.99,-0.16699474387599114
0.6600000000000001,-0.99,-0.12027396941730628
0.6699999999999999,-0.99,-0.07307852854928112
0.6799999999999999,-0.99,-0.025594680115475926
0.69,-0.99,0.02199017882764793
0.7,-0.99,0.06948825258129615
0.71,-0.99,0.1167120879481689
0.72,-0.99,0.16347531402459128
0.73,-0.99,0.20959337772132547
0.74,-0.99,0.2548842721102995
0.75,-0.99,0.29916925472280176
0.76,-0.99,0.3422735529643446
0.77,-0.99,0.38402705386224933
0.78,-0.99,0.42426497542383196
0.79,-0.99,0.46282851695564675
0.8,-0.99,0.4995654857772744
0.81,-0.99,0.5343308978562991
0.8200000000000001,-0.99,0.5669875499940528
0.8300000000000001,-0.99,0.5974065613039519
0.8400000000000001,-0.99,0.6254678818454804
0.8500000000000001,-0.99,0.6510607664064594
0.8600000000000001,-0.99,0.674084211563803
0.8700000000000001,-0.99,0.694447354297887
0.8800000000000001,-0.99,0.7120698305873748
0.8900000000000001,-0.99,0.7268820925692957
0.9000000000000001,-0.99,0.7388256830126856
0.9100000000000001,-0.99,0.7478534660225716
0.9199999999999999,-0.99,0.7539298130638163
0.9299999999999999,-0.99,0.757030743570666
0.94,-0.99,0.757144019587091
0.95,-0.99,0.7542691940644048
0.96,-0.99,0.7484176126255636
0.97,-0.99,0.7396123687891722
0.98,-0.99,0.7278882128299198
0.99,-0.99,0.7132914146351208
1.0,-0.99,0.6958795810986065

-1.0,-0.98,0.6732672311583532
-0.99,-0.98,0.6528965126750563
-0.98,-0.98,0.6299491099362754
-0.97,-0.98,0.6045155858569488
-0.96,-0.98,0.5766963149371451
-0.95,-0.98,0.5466010871297702
-0.94,-0.98,0.5143486745497768
-0.9299999999999999,-0.98,0.48006636273489234
-0.92,-0.98,0.44388944830775323
-0.91,-0.98,0.40596070502194137
-0.9,-0.98,0.3664298202992126
-0.89,-0.98,0.32545280448162395
-0.88,-0.98,0.2831913751299894
-0.87,-0.98,0.23981231879854958
-0.86,-0.98,0.19548683280463877
-0.85,-0.98,0.1503898495910867
-0.84,-0.98,0.10469934634778541
-0.83,-0.98,0.05859564261703086
-0.8200000000000001,-0.98,0.012260688654669685
-0.81,-0.98,-0.03412265264443576
-0.8,-0.98,-0.08037132742271051
-0.79,-0.98,-0.12630281328981488
-0.78,-0.98,-0.17173583965513084
-0.77,-0.98,-0.21649110311997033
-0.76,-0.98,-0.26039197510617207
-0.75,-0.98,-0.30326519892840725
-0.74,-0.98,-0.3449415735591628
-0.73,-0.98,-0.3852566213878948
-0.72,-0.98,-0.42405123733901695
-0.71,-0.98,-0.4611723167869448
-0.7,-0.98,-0.49647335979010493
-0.69,-0.98,-0.5298150492592762
-0.6799999999999999,-0.98,-0.5610658007784934
-0.6699999999999999,-0.98,-0.5901022819086197
-0.6599999999999999,-0.98,-0.6168098989241415
-0.6499999999999999,-0.98,-0.641083249062248
-0.64,-0.98,-0.6628265364993822
-0.63,-0.98,-0.6819539504135943
-0.62,-0.98,-0.6983900036406476
-0.61,-0.98,-0.7120698305873747
-0.6,-0.98,-0.7229394432265344
-0.59,-0.98,-0.7309559441628941
-0.5800000000000001,-0.98,-0.7360876959296486
-0.5700000000000001,-0.98,-0.7383144458470488
-0.56,-0.98,-0.7376274059504763
-0.55,-0.98,-0.7340292876725236
-0.54,-0.98,-0.7275342911422111
-0.53,-0.98,-0.7181680491435609
-0.52,-0.98,-0.7059675259547143
-0.51,-0.98,-0.6909808714668069
-0.5,-0.98,-0.673267231158353
-0.49,-0.98,-0.6528965126750563
-0.48,-0.98,-0.6299491099362755
-0.47,-0.98,-0.6045155858569486
-0.45999999999999996,-0.98,-0.5766963149371453
-0.44999999999999996,-0.98,-0.5466010871297702
-0.43999999999999995,-0.98,-0.5143486745497767
-0.42999999999999994,-0.98,-0.48006636273489245
-0.42000000000000004,-0.98,-0.44388944830775307
-0.41000000000000003,-0.98,-0.4059607050219414
-0.4,-0.98,-0.36642982029921295
-0.39,-0.98,-0.32545280448162395
-0.38,-0.98,-0.2831913751299896
-0.37,-0.98,-0.23981231879854975
-0.36,-0.98,-0.19548683280463897
-0.35,-0.98,-0.1503898495910869
-0.33999999999999997,-0.98,-0.10469934634778566
-0.32999999999999996,-0.98,-0.058595642617031124
-0.31999999999999995,-0.98,-0.012260688654669874
-0.30999999999999994,-0.98,0.034122652644435564
-0.29999999999999993,-0.98,0.08037132742271046
-0.29000000000000004,-0.98,0.12630281328981474
-0.28,-0.98,0.17173583965513067
-0.27,-0.98,0.21649110311997005
-0.26,-0.98,0.26039197510617207
-0.25,-0.98,0.3032651989284072
-0.24,-0.98,0.34494157355916255
-0.22999999999999998,-0.98,0.3852566213878948
-0.21999999999999997,-0.98,0.42405123733901706
-0.20999999999999996,-0.98,0.4611723167869448
-0.19999999999999996,-0.98,0.496473359790105
-0.18999999999999995,-0.98,0.5298150492592765
-0.17999999999999994,-0.98,0.5610658007784934
-0.16999999999999993,-0.98,0.5901022819086197
-0.16000000000000003,-0.98,0.616809898924142
-0.15000000000000002,-0.98,0.6410832490622477
-0.14,-0.98,0.6628265364993824
-0.13,-0.98,0.6819539504135941
-0.12,-0.98,0.6983900036406477
-0.10999999999999999,-0.98,0.7120698305873748
-0.09999999999999998,-0.98,0.7229394432265344
-0.08999999999999997,-0.98,0.7309559441628937
-0.07999999999999996,-0.98,0.7360876959296484
-0.06999999999999995,-0.98,0.7383144458470489
-0.05999999999999994,-0.98,0.7376274059504764
-0.04999999999999993,-0.98,0.7340292876725243
-0.040000000000000036,-0.98,0.7275342911422115
-0.030000000000000027,-0.98,0.7181680491435611
-0.020000000000000018,-0.98,0.7059675259547138
-0.010000000000000009,-0.98,0.6909808714668066
0.0,-0.98,0.6732672311583527
0.010000000000000009,-0.98,0.6528965126750562
0.020000000000000018,-0.98,0.6299491099362753
0.030000000000000027,-0.98,0.6045155858569484
0.040000000000000036,-0.98,0.5766963149371453
0.050000000000000044,-0.98,0.54660108712977
0.06000000000000005,-0.98,0.5143486745497765
0.07000000000000006,-0.98,0.48006636273489256
0.08000000000000007,-0.98,0.4438894483077531
0.09000000000000008,-0.98,0.40596070502194137
0.10000000000000009,-0.98,0.3664298202992129
0.1100000000000001,-0.98,0.3254528044816241
0.1200000000000001,-0.98,0.2831913751299895
0.13000000000000012,-0.98,0.23981231879854958
0.14000000000000012,-0.98,0.19548683280463885
0.15000000000000013,-0.98,0.15038984959108675
0.15999999999999992,-0.98,0.10469934634778563
0.16999999999999993,-0.98,0.05859564261703105
0.17999999999999994,-0.98,0.012260688654669786
0.18999999999999995,-0.98,-0.03412265264443558
0.19999999999999996,-0.98,-0.0803713274227105
0.20999999999999996,-0.98,-0.12630281328981485
0.21999999999999997,-0.98,-0.17173583965513087
0.22999999999999998,-0.98,-0.21649110311997022
0.24,-0.98,-0.26039197510617185
0.25,-0.98,-0.3032651989284072
0.26,-0.98,-0.34494157355916266
0.27,-0.98,-0.3852566213878948
0.28,-0.98,-0.4240512373390172
0.29000000000000004,-0.98,-0.4611723167869448
0.30000000000000004,-0.98,-0.4964733597901053
0.31000000000000005,-0.98,-0.5298150492592765
0.32000000000000006,-0.98,-0.5610658007784934
0.33000000000000007,-0.98,-0.5901022819086198
0.3400000000000001,-0.98,-0.6168098989241413
0.3500000000000001,-0.98,-0.6410832490622478
0.3600000000000001,-0.98,-0.6628265364993825
0.3700000000000001,-0.98,-0.6819539504135947
0.3800000000000001,-0.98,-0.6983900036406478
0.3900000000000001,-0.98,-0.7120698305873749
0.40000000000000013,-0.98,-0.7229394432265346
0.4099999999999999,-0.98,-0.7309559441628938
0.41999999999999993,-0.98,-0.7360876959296486
0.42999999999999994,-0.98,-0.7383144458470483
0.43999999999999995,-0.98,-0.7376274059504764
0.44999999999999996,-0.98,-0.7340292876725236
0.45999999999999996,-0.98,-0.7275342911422112
0.47,-0.98,-0.7181680491435611
0.48,-0.98,-0.7059675259547141
0.49,-0.98,-0.6909808714668073
0.5,-0.98,-0.6732672311583529
0.51,-0.98,-0.6528965126750569
0.52,-0.98,-0.6299491099362753
0.53,-0.98,-0.6045155858569491
0.54,-0.98,-0.5766963149371453
0.55,-0.98,-0.5466010871297702
0.56,-0.98,-0.5143486745497766
0.5700000000000001,-0.98,-0.4800663627348928
0.5800000000000001,-0.98,-0.443889448307753
0.5900000000000001,-0.98,-0.40596070502194126
0.6000000000000001,-0.98,-0.3664298202992127
0.6100000000000001,-0.98,-0.32545280448162417
0.6200000000000001,-0.98,-0.28319137512998943
0.6300000000000001,-0.98,-0.23981231879854964
0.6400000000000001,-0.98,-0.1954868328046388
0.6500000000000001,-0.98,-0.1503898495910868
0.6600000000000001,-0.98,-0.10469934634778547
0.6699999999999999,-0.98,-0.05859564261703094
0.6799999999999999,-0.98,-0.012260688654669751
0.69,-0.98,0.0341226526444356
0.7,-0.98,0.08037132742271053
0.71,-0.98,0.12630281328981485
0.72,-0.98,0.17173583965513092
0.73,-0.98,0.21649110311997016
0.74,-0.98,0.26039197510617207
0.75,-0.98,0.3032651989284074
0.76,-0.98,0.3449415735591626
0.77,-0.98,0.38525662138789474
0.78,-0.98,0.42405123733901706
0.79,-0.98,0.46117231678694504
0.8,-0.98,0.49647335979010465
0.81,-0.98,0.5298150492592762
0.8200000000000001,-0.98,0.5610658007784934
0.8300000000000001,-0.98,0.5901022819086199
0.8400000000000001,-0.98,0.6168098989241417
0.8500000000000001,-0.98,0.6410832490622478
0.8600000000000001,-0.98,0.6628265364993826
0.8700000000000001,-0.98,0.6819539504135943
0.8800000000000001,-0.98,0.698390003640648
0.8900000000000001,-0.98,0.7120698305873747
0.9000000000000001,-0.98,0.7229394432265344
0.9100000000000001,-0.98,0.7309559441628941
0.9199999999999999,-0.98,0.7360876959296483
0.9299999999999999,-0.98,0.7383144458470488
0.94,-0.98,0.7376274059504762
0.95,-0.98,0.7340292876725241
0.96,-0.98,0.7275342911422112
0.97,-0.98,0.7181680491435609
0.98,-0.98,0.705967525954714
0.99,-0.98,0.6909808714668066
1.0,-0.98,0.6732672311583532

-1.0,-0.97,0.6479978030432564
-0.99,-0.97,0.627494912321992
-0.98,-0.97,0.6045155858569486
-0.97,-0.97,0.5791505125514288
-0.96,-0.97,0.55149979676157
-0.95,-0.97,0.5216725632301837
-0.94,-0.97,0.4897865264212511
-0.9299999999999999,-0.97,0.45596752595471424
-0.92,-0.97,0.4203490299749809
-0.91,-0.97,0.38307160841314136
-0.9,-0.97,0.3442823782216661
-0.89,-0.97,0.304134422771007
-0.88,-0.97,0.26278618769947193
-0.87,-0.97,0.22040085560067607
-0.86,-0.97,0.17714570201639743
-0.85,-0.97,0.13319143527643307
-0.84,-0.97,0.08871152279081136
-0.83,-0.97,0.04388150645317404
-0.8200000000000001,-0.97,-0.001121690142880721
-0.81,-0.97,-0.046120459940392836
-0.8,-0.97,-0.09093721335295432
-0.79,-0.97,-0.1353950791296725
-0.78,-0.97,-0.17931860238519387
-0.77,-0.97,-0.2225344370399775
-0.76,-0.97,-0.26487202993807796
-0.75,-0.97,-0.30616429394253303
-0.74,-0.97,-0.34624826735195763
-0.73,-0.97,-0.3849657570359303
-0.72,-0.97,-0.42216396275100765
-0.71,-0.97,-0.45769608017347524
-0.7,-0.97,-0.49142188026894695
-0.69,-0.97,-0.5232082627122989
-0.6799999999999999,-0.97,-0.5529297811738433
-0.6699999999999999,-0.97,-0.5804691383986832
-0.6599999999999999,-0.97,-0.6057176491253875
-0.6499999999999999,-0.97,-0.6285756690170645
-0.64,-0.97,-0.6489529879120393
-0.63,-0.97,-0.6667691858421432
-0.62,-0.97,-0.6819539504135941
-0.61,-0.97,-0.6944473542978867
-0.6,-0.97,-0.7042000917375832
-0.59,-0.97,-0.7111736731336112
-0.5800000000000001,-0.97,-0.7153405769461263
-0.5700000000000001,-0.97,-0.7166843583094586
-0.56,-0.97,-0.7151997139324816
-0.55,-0.97,-0.7108925030282822
-0.54,-0.97,-0.7037797241905213
-0.53,-0.97,-0.6938894483077532
-0.52,-0.97,-0.6812607077804481
-0.51,-0.97,-0.6659433424779461
-0.5,-0.97,-0.6479978030432565
-0.49,-0.97,-0.627494912321992
-0.48,-0.97,-0.6045155858569486
-0.47,-0.97,-0.5791505125514289
-0.45999999999999996,-0.97,-0.5514997967615698
-0.44999999999999996,-0.97,-0.5216725632301834
-0.43999999999999995,-0.97,-0.4897865264212512
-0.42999999999999994,-0.97,-0.4559675259547141
-0.42000000000000004,-0.97,-0.4203490299749809
-0.41000000000000003,-0.97,-0.3830716084131418
-0.4,-0.97,-0.3442823782216661
-0.39,-0.97,-0.3041344227710072
-0.38,-0.97,-0.26278618769947193
-0.37,-0.97,-0.22040085560067624
-0.36,-0.97,-0.1771457020163976
-0.35,-0.97,-0.13319143527643335
-0.33999999999999997,-0.97,-0.08871152279081165
-0.32999999999999996,-0.97,-0.043881506453174235
-0.31999999999999995,-0.97,0.0011216901428805423
-0.30999999999999994,-0.97,0.04612045994039276
-0.29999999999999993,-0.97,0.09093721335295421
-0.29000000000000004,-0.97,0.13539507912967233
-0.28,-0.97,0.17931860238519365
-0.27,-0.97,0.22253443703997755
-0.26,-0.97,0.2648720299380779
-0.25,-0.97,0.3061642939425328
-0.24,-0.97,0.3462482673519575
-0.22999999999999998,-0.97,0.3849657570359305
-0.21999999999999997,-0.97,0.42216396275100754
-0.20999999999999996,-0.97,0.4576960801734753
-0.19999999999999996,-0.97,0.4914218802689471
-0.18999999999999995,-0.97,0.5232082627122989
-0.17999999999999994,-0.97,0.5529297811738434
-0.16999999999999993,-0.97,0.5804691383986835
-0.16000000000000003,-0.97,0.6057176491253872
-0.15000000000000002,-0.97,0.6285756690170647
-0.14,-0.97,0.648952987912039
-0.13,-0.97,0.6667691858421434
-0.12,-0.97,0.6819539504135943
-0.10999999999999999,-0.97,0.6944473542978867
-0.09999999999999998,-0.97,0.704200091737583
-0.08999999999999997,-0.97,0.7111736731336111
-0.07999999999999996,-0.97,0.7153405769461265
-0.06999999999999995,-0.97,0.7166843583094589
-0.05999999999999994,-0.97,0.7151997139324819
-0.04999999999999993,-0.97,0.7108925030282826
-0.040000000000000036,-0.97,0.7037797241905215
-0.030000000000000027,-0.97,0.6938894483077528
-0.020000000000000018,-0.97,0.6812607077804479
-0.010000000000000009,-0.97,0.6659433424779457
0.0,-0.97,0.6479978030432565
0.010000000000000009,-0.97,0.6274949123219917
0.020000000000000018,-0.97,0.6045155858569483
0.030000000000000027,-0.97,0.5791505125514291
0.040000000000000036,-0.97,0.5514997967615698
0.050000000000000044,-0.97,0.5216725632301833
0.06000000000000005,-0.97,0.4897865264212513
0.07000000000000006,-0.97,0.45596752595471424
0.08000000000000007,-0.97,0.42034902997498097
0.09000000000000008,-0.97,0.3830716084131417
0.10000000000000009,-0.97,0.3442823782216663
0.1100000000000001,-0.97,0.3041344227710071
0.1200000000000001,-0.97,0.2627861876994718
0.13000000000000012,-0.97,0.22040085560067618
0.14000000000000012,-0.97,0.17714570201639745
0.15000000000000013,-0.97,0.1331914352764333
0.15999999999999992,-0.97,0.08871152279081157
0.16999999999999993,-0.97,0.043881506453174166
0.17999999999999994,-0.97,-0.0011216901428805562
0.18999999999999995,-0.97,-0.046120459940392815
0.19999999999999996,-0.97,-0.0909372133529543
0.20999999999999996,-0.97,-0.1353950791296725
0.21999999999999997,-0.97,-0.17931860238519376
0.22999999999999998,-0.97,-0.22253443703997738
0.24,-0.97,-0.26487202993807796
0.25,-0.97,-0.30616429394253286
0.26,-0.97,-0.34624826735195763
0.27,-0.97,-0.38496575703593056
0.28,-0.97,-0.42216396275100754
0.29000000000000004,-0.97,-0.4576960801734755
0.30000000000000004,-0.97,-0.4914218802689471
0.31000000000000005,-0.97,-0.5232082627122988
0.32000000000000006,-0.97,-0.5529297811738434
0.33000000000000007,-0.97,-0.5804691383986831
0.3400000000000001,-0.97,-0.6057176491253873
0.3500000000000001,-0.97,-0.6285756690170647
0.3600000000000001,-0.97,-0.6489529879120397
0.3700000000000001,-0.97,-0.6667691858421436
0.3800000000000001,-0.97,-0.6819539504135943
0.3900000000000001,-0.97,-0.6944473542978871
0.40000000000000013,-0.97,-0.7042000917375831
0.4099999999999999,-0.97,-0.7111736731336111
0.41999999999999993,-0.97,-0.7153405769461261
0.42999999999999994,-0.97,-0.7166843583094586
0.43999999999999995,-0.97,-0.7151997139324813
0.44999999999999996,-0.97,-0.7108925030282823
0.45999999999999996,-0.97,-0.7037797241905215
0.47,-0.97,-0.6938894483077531
0.48,-0.97,-0.6812607077804483
0.49,-0.97,-0.6659433424779461
0.5,-0.97,-0.647997803043257
0.51,-0.97,-0.6274949123219918
0.52,-0.97,-0.6045155858569491
0.53,-0.97,-0.5791505125514289
0.54,-0.97,-0.55149979676157
0.55,-0.97,-0.5216725632301835
0.56,-0.97,-0.48978652642125153
0.5700000000000001,-0.97,-0.45596752595471407
0.5800000000000001,-0.97,-0.42034902997498086
0.5900000000000001,-0.97,-0.3830716084131416
0.6000000000000001,-0.97,-0.3442823782216663
0.6100000000000001,-0.97,-0.304134422771007
0.6200000000000001,-0.97,-0.26278618769947193
0.6300000000000001,-0.97,-0.22040085560067607
0.6400000000000001,-0.97,-0.17714570201639754
0.6500000000000001,-0.97,-0.13319143527643315
0.6600000000000001,-0.97,-0.08871152279081145