TITLE = "Solution" 
VARIABLES = "x", "y", "sol" 
ZONE STRANDID=1, SOLUTIONTIME= 0.5000000000000003, I= 201, J =201, DATAPACKING=POINT 
-1.0,-1.0,-0.08961900072685897
-0.99,-1.0,-0.08944215810043796
-0.98,-1.0,-0.0889123281382297
-0.97,-1.0,-0.08803160183703868
-0.96,-1.0,-0.08680345502121023
-0.95,-1.0,-0.08523273462513933
-0.94,-1.0,-0.08332563956463562
-0.9299999999999999,-1.0,-0.08108969627263389
-0.92,-1.0,-0.07853372899580241
-0.91,-1.0,-0.07566782496927241
-0.9,-1.0,-0.07250329460692971
-0.89,-1.0,-0.06905262686437792
-0.88,-1.0,-0.06532943995073687
-0.87,-1.0,-0.06134842758379236
-0.86,-1.0,-0.057125301000605214
-0.85,-1.0,-0.05267672695243614
-0.84,-1.0,-0.04802026192869315
-0.83,-1.0,-0.0431742828694886
-0.8200000000000001,-1.0,-0.03815791464025178
-0.81,-1.0,-0.032990954554622864
-0.8,-1.0,-0.027693794243500255
-0.79,-1.0,-0.02228733917858971
-0.78,-1.0,-0.01679292616805797
-0.77,-1.0,-0.011232239149899004
-0.76,-1.0,-0.005627223615337455
-0.75,-1.0,-9.367506770274758e-17
-0.74,-1.0,0.005627223615337289
-0.73,-1.0,0.011232239149898866
-0.72,-1.0,0.016792926168057783
-0.71,-1.0,0.022287339178589525
-0.7,-1.0,0.027693794243500082
-0.69,-1.0,0.03299095455462268
-0.6799999999999999,-1.0,0.038157914640251644
-0.6699999999999999,-1.0,0.04317428286948854
-0.6599999999999999,-1.0,0.04802026192869315
-0.6499999999999999,-1.0,0.052676726952436005
-0.64,-1.0,0.057125301000605075
-0.63,-1.0,0.061348427583792206
-0.62,-1.0,0.06532943995073677
-0.61,-1.0,0.06905262686437778
-0.6,-1.0,0.0725032946069295
-0.59,-1.0,0.07566782496927227
-0.5800000000000001,-1.0,0.07853372899580227
-0.5700000000000001,-1.0,0.08108969627263378
-0.56,-1.0,0.08332563956463548
-0.55,-1.0,0.08523273462513925
-0.54,-1.0,0.08680345502121009
-0.53,-1.0,0.08803160183703862
-0.52,-1.0,0.08891232813822965
-0.51,-1.0,0.08944215810043794
-0.5,-1.0,0.08961900072685897
-0.49,-1.0,0.08944215810043796
-0.48,-1.0,0.08891232813822965
-0.47,-1.0,0.08803160183703868
-0.45999999999999996,-1.0,0.08680345502121015
-0.44999999999999996,-1.0,0.0852327346251393
-0.43999999999999995,-1.0,0.0833256395646356
-0.42999999999999994,-1.0,0.08108969627263385
-0.42000000000000004,-1.0,0.07853372899580238
-0.41000000000000003,-1.0,0.07566782496927238
-0.4,-1.0,0.0725032946069297
-0.39,-1.0,0.06905262686437791
-0.38,-1.0,0.06532943995073688
-0.37,-1.0,0.061348427583792386
-0.36,-1.0,0.05712530100060517
-0.35,-1.0,0.05267672695243616
-0.33999999999999997,-1.0,0.04802026192869327
-0.32999999999999996,-1.0,0.043174282869488614
-0.31999999999999995,-1.0,0.038157914640251735
-0.30999999999999994,-1.0,0.032990954554622816
-0.29999999999999993,-1.0,0.02769379424350024
-0.29000000000000004,-1.0,0.022287339178589643
-0.28,-1.0,0.01679292616805792
-0.27,-1.0,0.011232239149899018
-0.26,-1.0,0.005627223615337445
-0.25,-1.0,1.249000902703301e-16
-0.24,-1.0,-0.005627223615337327
-0.22999999999999998,-1.0,-0.01123223914989891
-0.21999999999999997,-1.0,-0.01679292616805779
-0.20999999999999996,-1.0,-0.022287339178589487
-0.19999999999999996,-1.0,-0.027693794243500082
-0.18999999999999995,-1.0,-0.0329909545546227
-0.17999999999999994,-1.0,-0.03815791464025165
-0.16999999999999993,-1.0,-0.04317428286948846
-0.16000000000000003,-1.0,-0.04802026192869309
-0.15000000000000002,-1.0,-0.052676726952436026
-0.14,-1.0,-0.057125301000605005
-0.13,-1.0,-0.061348427583792234
-0.12,-1.0,-0.06532943995073674
-0.10999999999999999,-1.0,-0.06905262686437784
-0.09999999999999998,-1.0,-0.07250329460692956
-0.08999999999999997,-1.0,-0.07566782496927227
-0.07999999999999996,-1.0,-0.07853372899580227
-0.06999999999999995,-1.0,-0.08108969627263377
-0.05999999999999994,-1.0,-0.08332563956463554
-0.04999999999999993,-1.0,-0.08523273462513928
-0.040000000000000036,-1.0,-0.0868034550212101
-0.030000000000000027,-1.0,-0.08803160183703863
-0.020000000000000018,-1.0,-0.0889123281382296
-0.010000000000000009,-1.0,-0.08944215810043796
0.0,-1.0,-0.08961900072685897
0.010000000000000009,-1.0,-0.08944215810043793
0.020000000000000018,-1.0,-0.08891232813822965
0.030000000000000027,-1.0,-0.08803160183703862
0.040000000000000036,-1.0,-0.08680345502121012
0.050000000000000044,-1.0,-0.08523273462513928
0.06000000000000005,-1.0,-0.08332563956463555
0.07000000000000006,-1.0,-0.08108969627263383
0.08000000000000007,-1.0,-0.07853372899580234
0.09000000000000008,-1.0,-0.07566782496927235
0.10000000000000009,-1.0,-0.07250329460692967
0.1100000000000001,-1.0,-0.06905262686437791
0.1200000000000001,-1.0,-0.06532943995073684
0.13000000000000012,-1.0,-0.06134842758379236
0.14000000000000012,-1.0,-0.057125301000605144
0.15000000000000013,-1.0,-0.052676726952436144
0.15999999999999992,-1.0,-0.04802026192869324
0.16999999999999993,-1.0,-0.0431742828694886
0.17999999999999994,-1.0,-0.038157914640251756
0.18999999999999995,-1.0,-0.032990954554622885
0.19999999999999996,-1.0,-0.027693794243500262
0.20999999999999996,-1.0,-0.02228733917858964
0.21999999999999997,-1.0,-0.016792926168057914
0.22999999999999998,-1.0,-0.011232239149899053
0.24,-1.0,-0.0056272236153375
0.25,-1.0,-7.28583859910259e-17
0.26,-1.0,0.005627223615337296
0.27,-1.0,0.011232239149898918
0.28,-1.0,0.016792926168057748
0.29000000000000004,-1.0,0.022287339178589497
0.30000000000000004,-1.0,0.027693794243500096
0.31000000000000005,-1.0,0.03299095455462266
0.32000000000000006,-1.0,0.038157914640251644
0.33000000000000007,-1.0,0.043174282869488545
0.3400000000000001,-1.0,0.04802026192869309
0.3500000000000001,-1.0,0.05267672695243604
0.3600000000000001,-1.0,0.05712530100060506
0.3700000000000001,-1.0,0.06134842758379228
0.3800000000000001,-1.0,0.06532943995073678
0.3900000000000001,-1.0,0.06905262686437783
0.40000000000000013,-1.0,0.07250329460692959
0.4099999999999999,-1.0,0.07566782496927237
0.41999999999999993,-1.0,0.07853372899580228
0.42999999999999994,-1.0,0.0810896962726338
0.43999999999999995,-1.0,0.08332563956463548
0.44999999999999996,-1.0,0.08523273462513925
0.45999999999999996,-1.0,0.08680345502121006
0.47,-1.0,0.08803160183703859
0.48,-1.0,0.08891232813822958
0.49,-1.0,0.08944215810043792
0.5,-1.0,0.08961900072685894
0.51,-1.0,0.08944215810043789
0.52,-1.0,0.08891232813822966
0.53,-1.0,0.08803160183703862
0.54,-1.0,0.08680345502121017
0.55,-1.0,0.08523273462513933
0.56,-1.0,0.08332563956463561
0.5700000000000001,-1.0,0.08108969627263388
0.5800000000000001,-1.0,0.0785337289958024
0.5900000000000001,-1.0,0.07566782496927243
0.6000000000000001,-1.0,0.07250329460692963
0.6100000000000001,-1.0,0.0690526268643779
0.6200000000000001,-1.0,0.06532943995073684
0.6300000000000001,-1.0,0.061348427583792345
0.6400000000000001,-1.0,0.057125301000605144
0.6500000000000001,-1.0,0.05267672695243614
0.6600000000000001,-1.0,0.04802026192869324
0.6699999999999999,-1.0,0.0431742828694886
0.6799999999999999,-1.0,0.03815791464025177
0.69,-1.0,0.03299095455462286
0.7,-1.0,0.027693794243500255
0.71,-1.0,0.022287339178589664
0.72,-1.0,0.016792926168057935
0.73,-1.0,0.011232239149899032
0.74,-1.0,0.005627223615337473
0.75,-1.0,1.0755285551056204e-16
0.76,-1.0,-0.005627223615337327
0.77,-1.0,-0.011232239149898876
0.78,-1.0,-0.016792926168057717
0.79,-1.0,-0.02228733917858948
0.8,-1.0,-0.027693794243500137
0.81,-1.0,-0.03299095455462269
0.8200000000000001,-1.0,-0.03815791464025167
0.8300000000000001,-1.0,-0.04317428286948852
0.8400000000000001,-1.0,-0.048020261928693145
0.8500000000000001,-1.0,-0.05267672695243601
0.8600000000000001,-1.0,-0.057125301000605026
0.8700000000000001,-1.0,-0.06134842758379223
0.8800000000000001,-1.0,-0.06532943995073676
0.8900000000000001,-1.0,-0.06905262686437778
0.9000000000000001,-1.0,-0.0725032946069295
0.9100000000000001,-1.0,-0.07566782496927227
0.9199999999999999,-1.0,-0.07853372899580217
0.9299999999999999,-1.0,-0.08108969627263371
0.94,-1.0,-0.0833256395646355
0.95,-1.0,-0.08523273462513922
0.96,-1.0,-0.0868034550212101
0.97,-1.0,-0.08803160183703859
0.98,-1.0,-0.08891232813822963
0.99,-1.0,-0.08944215810043796
1.0,-1.0,-0.08961900072685897

-1.0,-0.99,-0.08944215810043796
-0.99,-0.99,-0.08567635138409793
-0.98,-0.99,-0.08157241925064654
-0.97,-0.99,-0.07714655804530635
-0.96,-0.99,-0.0724162346202711
-0.95,-0.99,-0.06740011740102031
-0.94,-0.99,-0.0621180027105723
-0.9299999999999999,-0.99,-0.05659073664244168
-0.92,-0.99,-0.05084013279063161
-0.91,-0.99,-0.04488888616134431
-0.9,-0.99,-0.03876048360615947
-0.89,-0.99,-0.03247911113016169
-0.88,-0.99,-0.026069558440827603
-0.87,-0.99,-0.019557121114375936
-0.86,-0.99,-0.012967500765684531
-0.85,-0.99,-0.006326703615758534
-0.84,-0.99,0.00033906214294284615
-0.83,-0.99,0.007003489778268774
-0.8200000000000001,-0.99,0.013640277839030032
-0.81,-0.99,0.020223233954810856
-0.8,-0.99,0.026726378205288722
-0.79,-0.99,0.03312404565111113
-0.78,-0.99,0.03939098762168571
-0.77,-0.99,0.04550247136014776
-0.76,-0.99,0.05143437763225311
-0.75,-0.99,0.05716329591397594
-0.74,-0.99,0.06266661678215205
-0.73,-0.99,0.067922621143543
-0.72,-0.99,0.07291056595017423
-0.71,-0.99,0.07761076606266916
-0.7,-0.99,0.08200467193850113
-0.69,-0.99,0.08607494283856272
-0.6799999999999999,-0.99,0.08980551526314144
-0.6699999999999999,-0.99,0.0931816663472137
-0.6599999999999999,-0.99,0.09619007196486742
-0.6499999999999999,-0.99,0.09881885931353973
-0.64,-0.99,0.10105765377054379
-0.63,-0.99,0.10289761983696603
-0.62,-0.99,0.10433149600734254
-0.61,-0.99,0.10535362342750465
-0.6,-0.99,0.10595996822749072
-0.59,-0.99,0.10614813744138765
-0.5800000000000001,-0.99,0.10591738845127456
-0.5700000000000001,-0.99,0.1052686319179962
-0.56,-0.99,0.10420442818720084
-0.55,-0.99,0.10272897718482535
-0.54,-0.99,0.10084810184190687
-0.53,-0.99,0.09856922511413349
-0.52,-0.99,0.0959013406868301
-0.51,-0.99,0.09285497748099072
-0.5,-0.99,0.08944215810043796
-0.49,-0.99,0.08567635138409788
-0.48,-0.99,0.08157241925064652
-0.47,-0.99,0.0771465580453063
-0.45999999999999996,-0.99,0.07241623462027108
-0.44999999999999996,-0.99,0.0674001174010203
-0.43999999999999995,-0.99,0.062118002710572266
-0.42999999999999994,-0.99,0.056590736642441644
-0.42000000000000004,-0.99,0.05084013279063157
-0.41000000000000003,-0.99,0.04488888616134427
-0.4,-0.99,0.038760483606159454
-0.39,-0.99,0.0324791111301617
-0.38,-0.99,0.02606955844082763
-0.37,-0.99,0.01955712111437591
-0.36,-0.99,0.012967500765684559
-0.35,-0.99,0.006326703615758628
-0.33999999999999997,-0.99,-0.00033906214294282533
-0.32999999999999996,-0.99,-0.007003489778268833
-0.31999999999999995,-0.99,-0.013640277839030077
-0.30999999999999994,-0.99,-0.020223233954810863
-0.29999999999999993,-0.99,-0.026726378205288816
-0.29000000000000004,-0.99,-0.0331240456511112
-0.28,-0.99,-0.03939098762168568
-0.27,-0.99,-0.04550247136014776
-0.26,-0.99,-0.05143437763225307
-0.25,-0.99,-0.05716329591397597
-0.24,-0.99,-0.06266661678215212
-0.22999999999999998,-0.99,-0.06792262114354301
-0.21999999999999997,-0.99,-0.07291056595017414
-0.20999999999999996,-0.99,-0.07761076606266917
-0.19999999999999996,-0.99,-0.08200467193850113
-0.18999999999999995,-0.99,-0.08607494283856275
-0.17999999999999994,-0.99,-0.08980551526314134
-0.16999999999999993,-0.99,-0.09318166634721366
-0.16000000000000003,-0.99,-0.09619007196486748
-0.15000000000000002,-0.99,-0.09881885931353963
-0.14,-0.99,-0.10105765377054382
-0.13,-0.99,-0.10289761983696599
-0.12,-0.99,-0.1043314960073426
-0.10999999999999999,-0.99,-0.10535362342750475
-0.09999999999999998,-0.99,-0.10595996822749072
-0.08999999999999997,-0.99,-0.10614813744138767
-0.07999999999999996,-0.99,-0.10591738845127455
-0.06999999999999995,-0.99,-0.10526863191799624
-0.05999999999999994,-0.99,-0.10420442818720083
-0.04999999999999993,-0.99,-0.10272897718482538
-0.040000000000000036,-0.99,-0.10084810184190687
-0.030000000000000027,-0.99,-0.09856922511413345
-0.020000000000000018,-0.99,-0.0959013406868301
-0.010000000000000009,-0.99,-0.09285497748099074
0.0,-0.99,-0.08944215810043793
0.010000000000000009,-0.99,-0.08567635138409786
0.020000000000000018,-0.99,-0.08157241925064648
0.030000000000000027,-0.99,-0.07714655804530626
0.040000000000000036,-0.99,-0.07241623462027105
0.050000000000000044,-0.99,-0.06740011740102024
0.06000000000000005,-0.99,-0.062118002710572266
0.07000000000000006,-0.99,-0.05659073664244162
0.08000000000000007,-0.99,-0.050840132790631556
0.09000000000000008,-0.99,-0.04488888616134425
0.10000000000000009,-0.99,-0.03876048360615944
0.1100000000000001,-0.99,-0.03247911113016166
0.1200000000000001,-0.99,-0.026069558440827603
0.13000000000000012,-0.99,-0.0195571211143759
0.14000000000000012,-0.99,-0.012967500765684547
0.15000000000000013,-0.99,-0.006326703615758607
0.15999999999999992,-0.99,0.0003390621429428392
0.16999999999999993,-0.99,0.007003489778268802
0.17999999999999994,-0.99,0.013640277839030015
0.18999999999999995,-0.99,0.02022323395481085
0.19999999999999996,-0.99,0.026726378205288805
0.20999999999999996,-0.99,0.033124045651111204
0.21999999999999997,-0.99,0.039390987621685664
0.22999999999999998,-0.99,0.045502471360147706
0.24,-0.99,0.05143437763225314
0.25,-0.99,0.057163295913975946
0.26,-0.99,0.06266661678215212
0.27,-0.99,0.06792262114354294
0.28,-0.99,0.07291056595017421
0.29000000000000004,-0.99,0.0776107660626692
0.30000000000000004,-0.99,0.0820046719385011
0.31000000000000005,-0.99,0.08607494283856275
0.32000000000000006,-0.99,0.08980551526314146
0.33000000000000007,-0.99,0.09318166634721364
0.3400000000000001,-0.99,0.09619007196486748
0.3500000000000001,-0.99,0.09881885931353968
0.3600000000000001,-0.99,0.10105765377054385
0.3700000000000001,-0.99,0.10289761983696605
0.3800000000000001,-0.99,0.10433149600734257
0.3900000000000001,-0.99,0.10535362342750476
0.40000000000000013,-0.99,0.10595996822749082
0.4099999999999999,-0.99,0.10614813744138768
0.41999999999999993,-0.99,0.10591738845127457
0.42999999999999994,-0.99,0.10526863191799621
0.43999999999999995,-0.99,0.10420442818720083
0.44999999999999996,-0.99,0.10272897718482536
0.45999999999999996,-0.99,0.10084810184190682
0.47,-0.99,0.09856922511413341
0.48,-0.99,0.09590134068683007
0.49,-0.99,0.09285497748099071
0.5,-0.99,0.0894421581004379
0.51,-0.99,0.08567635138409788
0.52,-0.99,0.08157241925064648
0.53,-0.99,0.0771465580453063
0.54,-0.99,0.07241623462027108
0.55,-0.99,0.0674001174010203
0.56,-0.99,0.06211800271057229
0.5700000000000001,-0.99,0.05659073664244167
0.5800000000000001,-0.99,0.05084013279063163
0.5900000000000001,-0.99,0.04488888616134424
0.6000000000000001,-0.99,0.03876048360615944
0.6100000000000001,-0.99,0.032479111130161664
0.6200000000000001,-0.99,0.026069558440827582
0.6300000000000001,-0.99,0.01955712111437591
0.6400000000000001,-0.99,0.012967500765684543
0.6500000000000001,-0.99,0.006326703615758603
0.6600000000000001,-0.99,-0.0003390621429428496
0.6699999999999999,-0.99,-0.007003489778268816
0.6799999999999999,-0.99,-0.013640277839030053
0.69,-0.99,-0.020223233954810863
0.7,-0.99,-0.02672637820528881
0.71,-0.99,-0.03312404565111117
0.72,-0.99,-0.039390987621685684
0.73,-0.99,-0.04550247136014772
0.74,-0.99,-0.0514343776322531
0.75,-0.99,-0.057163295913975995
0.76,-0.99,-0.06266661678215207
0.77,-0.99,-0.06792262114354292
0.78,-0.99,-0.07291056595017414
0.79,-0.99,-0.07761076606266923
0.8,-0.99,-0.08200467193850111
0.81,-0.99,-0.08607494283856275
0.8200000000000001,-0.99,-0.08980551526314141
0.8300000000000001,-0.99,-0.0931816663472137
0.8400000000000001,-0.99,-0.09619007196486745
0.8500000000000001,-0.99,-0.09881885931353968
0.8600000000000001,-0.99,-0.10105765377054382
0.8700000000000001,-0.99,-0.10289761983696603
0.8800000000000001,-0.99,-0.10433149600734255
0.8900000000000001,-0.99,-0.10535362342750468
0.9000000000000001,-0.99,-0.10595996822749071
0.9100000000000001,-0.99,-0.10614813744138754
0.9199999999999999,-0.99,-0.10591738845127452
0.9299999999999999,-0.99,-0.10526863191799621
0.94,-0.99,-0.1042044281872008
0.95,-0.99,-0.10272897718482542
0.96,-0.99,-0.10084810184190683
0.97,-0.99,-0.09856922511413349
0.98,-0.99,-0.0959013406868301
0.99,-0.99,-0.09285497748099075
1.0,-0.99,-0.08944215810043796

-1.0,-0.98,-0.0889123281382297
-0.99,-0.98,-0.08157241925064652
-0.98,-0.98,-0.07391058129117456
-0.97,-0.98,-0.06595705203387896
-0.96,-0.98,-0.057743220425116454
-0.95,-0.98,-0.049301502705704055
-0.94,-0.98,-0.04066521447882637
-0.9299999999999999,-0.98,-0.031868439228570036
-0.92,-0.98,-0.022945893807983567
-0.91,-0.98,-0.013932791427518666
-0.9,-0.98,-0.004864702684576295
-0.89,-0.98,0.004222584817390854
-0.88,-0.98,0.013293207706199253
-0.87,-0.98,0.022311368377280233
-0.86,-0.98,0.0312414762704707
-0.85,-0.98,0.04004828832969444
-0.84,-0.98,0.04869704809120339
-0.83,-0.98,0.05715362285146148
-0.8200000000000001,-0.98,0.06538463837333144
-0.81,-0.98,0.07335761059894162
-0.8,-0.98,0.08104107384942223
-0.79,-0.98,0.08840470500556416
-0.78,-0.98,0.09541944317931687
-0.77,-0.98,0.10205760440383776
-0.76,-0.98,0.10829299088946115
-0.75,-0.98,0.11410099441440524
-0.74,-0.98,0.11945869344218167
-0.73,-0.98,0.12434494358242748
-0.72,-0.98,0.12874046103815434
-0.71,-0.98,0.1326278987100858
-0.7,-0.98,0.13599191465773183
-0.69,-0.98,0.1388192326470199
-0.6799999999999999,-0.98,0.1410986945455248
-0.6699999999999999,-0.98,0.14282130435852033
-0.6599999999999999,-0.98,0.14398026373206033
-0.6499999999999999,-0.98,0.14457099878297522
-0.64,-0.98,0.14459117814990066
-0.63,-0.98,0.14404072219409417
-0.62,-0.98,0.14292180331373391
-0.61,-0.98,0.14123883737045545
-0.6,-0.98,0.13899846626196283
-0.59,-0.98,0.13620953170949301
-0.5800000000000001,-0.98,0.13288304036358156
-0.5700000000000001,-0.98,0.12903212036584166
-0.56,-0.98,0.12467196953818604
-0.55,-0.98,0.11981979540396845
-0.54,-0.98,0.11449474727774878
-0.53,-0.98,0.10871784069169832
-0.52,-0.98,0.1025118744568946
-0.51,-0.98,0.0959013406868301
-0.5,-0.98,0.08891232813822966
-0.49,-0.98,0.08157241925064651
-0.48,-0.98,0.07391058129117453
-0.47,-0.98,0.06595705203387894
-0.45999999999999996,-0.98,0.05774322042511642
-0.44999999999999996,-0.98,0.04930150270570402
-0.43999999999999995,-0.98,0.04066521447882633
-0.42999999999999994,-0.98,0.031868439228569995
-0.42000000000000004,-0.98,0.022945893807983522
-0.41000000000000003,-0.98,0.01393279142751864
-0.4,-0.98,0.004864702684576281
-0.39,-0.98,-0.0042225848173908336
-0.38,-0.98,-0.013293207706199277
-0.37,-0.98,-0.022311368377280205
-0.36,-0.98,-0.031241476270470633
-0.35,-0.98,-0.040048288329694426
-0.33999999999999997,-0.98,-0.04869704809120347
-0.32999999999999996,-0.98,-0.05715362285146154
-0.31999999999999995,-0.98,-0.06538463837333142
-0.30999999999999994,-0.98,-0.07335761059894172
-0.29999999999999993,-0.98,-0.08104107384942232
-0.29000000000000004,-0.98,-0.08840470500556413
-0.28,-0.98,-0.09541944317931686
-0.27,-0.98,-0.10205760440383778
-0.26,-0.98,-0.1082929908894612
-0.25,-0.98,-0.11410099441440533
-0.24,-0.98,-0.11945869344218168
-0.22999999999999998,-0.98,-0.12434494358242734
-0.21999999999999997,-0.98,-0.1287404610381544
-0.20999999999999996,-0.98,-0.13262789871008582
-0.19999999999999996,-0.98,-0.13599191465773186
-0.18999999999999995,-0.98,-0.13881923264701979
-0.17999999999999994,-0.98,-0.14109869454552476
-0.16999999999999993,-0.98,-0.14282130435852036
-0.16000000000000003,-0.98,-0.1439802637320602
-0.15000000000000002,-0.98,-0.1445709987829753
-0.14,-0.98,-0.1445911781499006
-0.13,-0.98,-0.1440407221940942
-0.12,-0.98,-0.142921803313734
-0.10999999999999999,-0.98,-0.14123883737045548
-0.09999999999999998,-0.98,-0.13899846626196283
-0.08999999999999997,-0.98,-0.136209531709493
-0.07999999999999996,-0.98,-0.13288304036358162
-0.06999999999999995,-0.98,-0.12903212036584158
-0.05999999999999994,-0.98,-0.12467196953818607
-0.04999999999999993,-0.98,-0.11981979540396845
-0.040000000000000036,-0.98,-0.11449474727774875
-0.030000000000000027,-0.98,-0.10871784069169832
-0.020000000000000018,-0.98,-0.10251187445689458
-0.010000000000000009,-0.98,-0.09590134068683007
0.0,-0.98,-0.08891232813822962
0.010000000000000009,-0.98,-0.08157241925064648
0.020000000000000018,-0.98,-0.0739105812911745
0.030000000000000027,-0.98,-0.0659570520338789
0.040000000000000036,-0.98,-0.057743220425116384
0.050000000000000044,-0.98,-0.04930150270570402
0.06000000000000005,-0.98,-0.04066521447882631
0.07000000000000006,-0.98,-0.03186843922856998
0.08000000000000007,-0.98,-0.0229458938079835
0.09000000000000008,-0.98,-0.01393279142751863
0.10000000000000009,-0.98,-0.004864702684576254
0.1100000000000001,-0.98,0.004222584817390858
0.1200000000000001,-0.98,0.013293207706199281
0.13000000000000012,-0.98,0.02231136837728022
0.14000000000000012,-0.98,0.031241476270470657
0.15000000000000013,-0.98,0.04004828832969444
0.15999999999999992,-0.98,0.048697048091203426
0.16999999999999993,-0.98,0.05715362285146147
0.17999999999999994,-0.98,0.06538463837333142
0.18999999999999995,-0.98,0.07335761059894172
0.19999999999999996,-0.98,0.08104107384942233
0.20999999999999996,-0.98,0.08840470500556412
0.21999999999999997,-0.98,0.0954194431793168
0.22999999999999998,-0.98,0.10205760440383785
0.24,-0.98,0.10829299088946118
0.25,-0.98,0.11410099441440533
0.26,-0.98,0.11945869344218157
0.27,-0.98,0.12434494358242745
0.28,-0.98,0.1287404610381544
0.29000000000000004,-0.98,0.1326278987100858
0.30000000000000004,-0.98,0.13599191465773183
0.31000000000000005,-0.98,0.1388192326470199
0.32000000000000006,-0.98,0.14109869454552476
0.33000000000000007,-0.98,0.14282130435852036
0.3400000000000001,-0.98,0.14398026373206024
0.3500000000000001,-0.98,0.14457099878297527
0.3600000000000001,-0.98,0.14459117814990063
0.3700000000000001,-0.98,0.14404072219409414
0.3800000000000001,-0.98,0.142921803313734
0.3900000000000001,-0.98,0.1412388373704556
0.40000000000000013,-0.98,0.13899846626196283
0.4099999999999999,-0.98,0.13620953170949301
0.41999999999999993,-0.98,0.13288304036358162
0.42999999999999994,-0.98,0.1290321203658416
0.43999999999999995,-0.98,0.1246719695381861
0.44999999999999996,-0.98,0.1198197954039684
0.45999999999999996,-0.98,0.11449474727774869
0.47,-0.98,0.10871784069169829
0.48,-0.98,0.10251187445689453
0.49,-0.98,0.09590134068683004
0.5,-0.98,0.08891232813822962
0.51,-0.98,0.08157241925064646
0.52,-0.98,0.0739105812911745
0.53,-0.98,0.06595705203387892
0.54,-0.98,0.05774322042511642
0.55,-0.98,0.04930150270570405
0.56,-0.98,0.04066521447882635
0.5700000000000001,-0.98,0.03186843922857005
0.5800000000000001,-0.98,0.022945893807983515
0.5900000000000001,-0.98,0.013932791427518632
0.6000000000000001,-0.98,0.004864702684576257
0.6100000000000001,-0.98,-0.004222584817390886
0.6200000000000001,-0.98,-0.01329320770619926
0.6300000000000001,-0.98,-0.022311368377280212
0.6400000000000001,-0.98,-0.031241476270470657
0.6500000000000001,-0.98,-0.04004828832969444
0.6600000000000001,-0.98,-0.04869704809120347
0.6699999999999999,-0.98,-0.05715362285146152
0.6799999999999999,-0.98,-0.06538463837333144
0.69,-0.98,-0.07335761059894172
0.7,-0.98,-0.08104107384942229
0.71,-0.98,-0.08840470500556415
0.72,-0.98,-0.09541944317931682
0.73,-0.98,-0.10205760440383776
0.74,-0.98,-0.10829299088946123
0.75,-0.98,-0.11410099441440527
0.76,-0.98,-0.11945869344218156
0.77,-0.98,-0.12434494358242731
0.78,-0.98,-0.12874046103815442
0.79,-0.98,-0.13262789871008582
0.8,-0.98,-0.13599191465773183
0.81,-0.98,-0.13881923264701984
0.8200000000000001,-0.98,-0.1410986945455248
0.8300000000000001,-0.98,-0.1428213043585203
0.8400000000000001,-0.98,-0.14398026373206024
0.8500000000000001,-0.98,-0.14457099878297525
0.8600000000000001,-0.98,-0.14459117814990066
0.8700000000000001,-0.98,-0.1440407221940942
0.8800000000000001,-0.98,-0.1429218033137339
0.8900000000000001,-0.98,-0.14123883737045545
0.9000000000000001,-0.98,-0.1389984662619627
0.9100000000000001,-0.98,-0.13620953170949296
0.9199999999999999,-0.98,-0.1328830403635816
0.9299999999999999,-0.98,-0.12903212036584155
0.94,-0.98,-0.12467196953818616
0.95,-0.98,-0.1198197954039684
0.96,-0.98,-0.11449474727774876
0.97,-0.98,-0.10871784069169833
0.98,-0.98,-0.10251187445689462
0.99,-0.98,-0.09590134068683011
1.0,-0.98,-0.0889123281382297

-1.0,-0.97,-0.08803160183703868
-0.99,-0.97,-0.07714655804530635
-0.98,-0.97,-0.06595705203387896
-0.97,-0.97,-0.05450724367098468
-0.96,-0.97,-0.04284232011931191
-0.95,-0.97,-0.031008317502922513
-0.94,-0.97,-0.019051939223701797
-0.9299999999999999,-0.97,-0.007020371644368255
-0.92,-0.97,0.005038902134542916
-0.91,-0.97,0.017078289668784438
-0.9,-0.97,0.02905027699603166
-0.89,-0.97,0.040907616151784676
-0.88,-0.97,0.052603511635498694
-0.87,-0.97,0.06409180509104587
-0.86,-0.97,0.07532715747265921
-0.85,-0.97,0.08626522797743263
-0.84,-0.97,0.0968628490382131
-0.83,-0.97,0.1070781966862661
-0.8200000000000001,-0.97,0.11687095561137305
-0.81,-0.97,0.12620247826794279
-0.8,-0.97,0.1350359373992171
-0.79,-0.97,0.14333647137762803
-0.78,-0.97,0.1510713217877162
-0.77,-0.97,0.15820996270863028
-0.76,-0.97,0.16472422118598995
-0.75,-0.97,0.17058838841766688
-0.74,-0.97,0.17577932121468065
-0.73,-0.97,0.18027653333679294
-0.72,-0.97,0.18406227634233896
-0.71,-0.97,0.187121609633217
-0.7,-0.97,0.18944245941860455
-0.69,-0.97,0.1910156663646939
-0.6799999999999999,-0.97,0.19183502174239878
-0.6699999999999999,-0.97,0.19189729193037142
-0.6599999999999999,-0.97,0.19120223117662805
-0.6499999999999999,-0.97,0.1897525825684212
-0.64,-0.97,0.1875540672065256
-0.63,-0.97,0.18461536162666853
-0.62,-0.97,0.18094806355720705
-0.61,-0.97,0.17656664614819206
-0.6,-0.97,0.17148840085245776
-0.59,-0.97,0.16573336918415674
-0.5800000000000001,-0.97,0.1593242636240601
-0.5700000000000001,-0.97,0.15228637798377143
-0.56,-0.97,0.14464748758260926
-0.55,-0.97,0.13643773963110947
-0.54,-0.97,0.12768953425375984
-0.53,-0.97,0.11843739662050987
-0.52,-0.97,0.10871784069169835
-0.51,-0.97,0.09856922511413355
-0.5,-0.97,0.08803160183703865
-0.49,-0.97,0.07714655804530632
-0.48,-0.97,0.06595705203387893
-0.47,-0.97,0.05450724367098465
-0.45999999999999996,-0.97,0.04284232011931187
-0.44999999999999996,-0.97,0.03100831750292247
-0.43999999999999995,-0.97,0.019051939223701745
-0.42999999999999994,-0.97,0.007020371644368207
-0.42000000000000004,-0.97,-0.005038902134542953
-0.41000000000000003,-0.97,-0.01707828966878447
-0.4,-0.97,-0.029050276996031646
-0.39,-0.97,-0.04090761615178469
-0.38,-0.97,-0.05260351163549867
-0.37,-0.97,-0.06409180509104584
-0.36,-0.97,-0.0753271574726592
-0.35,-0.97,-0.08626522797743272
-0.33999999999999997,-0.97,-0.09686284903821313
-0.32999999999999996,-0.97,-0.10707819668626607
-0.31999999999999995,-0.97,-0.11687095561137319
-0.30999999999999994,-0.97,-0.12620247826794287
-0.29999999999999993,-0.97,-0.13503593739921707
-0.29000000000000004,-0.97,-0.14333647137762798
-0.28,-0.97,-0.1510713217877162
-0.27,-0.97,-0.15820996270863033
-0.26,-0.97,-0.16472422118598998
-0.25,-0.97,-0.1705883884176669
-0.24,-0.97,-0.17577932121468057
-0.22999999999999998,-0.97,-0.18027653333679303
-0.21999999999999997,-0.97,-0.18406227634233904
-0.20999999999999996,-0.97,-0.1871216096332171
-0.19999999999999996,-0.97,-0.1894424594186045
-0.18999999999999995,-0.97,-0.19101566636469383
-0.17999999999999994,-0.97,-0.1918350217423988
-0.16999999999999993,-0.97,-0.19189729193037128
-0.16000000000000003,-0.97,-0.1912022311766282
-0.15000000000000002,-0.97,-0.18975258256842115
-0.14,-0.97,-0.1875540672065257
-0.13,-0.97,-0.1846153616266686
-0.12,-0.97,-0.18094806355720708
-0.10999999999999999,-0.97,-0.17656664614819206
-0.09999999999999998,-0.97,-0.17148840085245776
-0.08999999999999997,-0.97,-0.16573336918415676
-0.07999999999999996,-0.97,-0.15932426362406002
-0.06999999999999995,-0.97,-0.15228637798377148
-0.05999999999999994,-0.97,-0.14464748758260923
-0.04999999999999993,-0.97,-0.13643773963110944
-0.040000000000000036,-0.97,-0.1276895342537599
-0.030000000000000027,-0.97,-0.11843739662050987
-0.020000000000000018,-0.97,-0.10871784069169832
-0.010000000000000009,-0.97,-0.09856922511413348
0.0,-0.97,-0.08803160183703862
0.010000000000000009,-0.97,-0.07714655804530625
0.020000000000000018,-0.97,-0.06595705203387892
0.030000000000000027,-0.97,-0.0545072436709846
0.040000000000000036,-0.97,-0.042842320119311855
0.050000000000000044,-0.97,-0.03100831750292244
0.06000000000000005,-0.97,-0.01905193922370173
0.07000000000000006,-0.97,-0.0070203716443681796
0.08000000000000007,-0.97,0.005038902134542968
0.09000000000000008,-0.97,0.017078289668784476
0.10000000000000009,-0.97,0.029050276996031674
0.1100000000000001,-0.97,0.0409076161517847
0.1200000000000001,-0.97,0.05260351163549869
0.13000000000000012,-0.97,0.06409180509104584
0.14000000000000012,-0.97,0.0753271574726592
0.15000000000000013,-0.97,0.08626522797743266
0.15999999999999992,-0.97,0.09686284903821309
0.16999999999999993,-0.97,0.10707819668626606
0.17999999999999994,-0.97,0.11687095561137315
0.18999999999999995,-0.97,0.12620247826794295
0.19999999999999996,-0.97,0.135035937399217
0.20999999999999996,-0.97,0.1433364713776279
0.21999999999999997,-0.97,0.1510713217877163
0.22999999999999998,-0.97,0.15820996270863028
0.24,-0.97,0.16472422118599
0.25,-0.97,0.17058838841766677
0.26,-0.97,0.17577932121468065
0.27,-0.97,0.18027653333679305
0.28,-0.97,0.18406227634233896
0.29000000000000004,-0.97,0.18712160963321706
0.30000000000000004,-0.97,0.1894424594186046
0.31000000000000005,-0.97,0.1910156663646938
0.32000000000000006,-0.97,0.1918350217423988
0.33000000000000007,-0.97,0.19189729193037133
0.3400000000000001,-0.97,0.19120223117662816
0.3500000000000001,-0.97,0.1897525825684212
0.3600000000000001,-0.97,0.18755406720652554
0.3700000000000001,-0.97,0.18461536162666864
0.3800000000000001,-0.97,0.18094806355720716
0.3900000000000001,-0.97,0.17656664614819206
0.40000000000000013,-0.97,0.17148840085245776
0.4099999999999999,-0.97,0.1657333691841568
0.41999999999999993,-0.97,0.15932426362406008
0.42999999999999994,-0.97,0.1522863779837715
0.43999999999999995,-0.97,0.14464748758260915
0.44999999999999996,-0.97,0.13643773963110944
0.45999999999999996,-0.97,0.12768953425375987
0.47,-0.97,0.11843739662050981
0.48,-0.97,0.10871784069169829
0.49,-0.97,0.09856922511413345
0.5,-0.97,0.08803160183703859
0.51,-0.97,0.07714655804530623
0.52,-0.97,0.06595705203387889
0.53,-0.97,0.05450724367098461