TITLE = "Solution" 
VARIABLES = "x", "y", "sol" 
ZONE STRANDID=1, SOLUTIONTIME= 0.7500000000000006, I= 201, J =201, DATAPACKING=POINT 
-1.0,-1.0,0.8717884251455383
-0.99,-1.0,0.8700681498296365
-0.98,-1.0,0.8649141130226852
-0.97,-1.0,0.8563466553533041
-0.96,-1.0,0.8443995886628167
-0.95,-1.0,0.8291200625653539
-0.94,-1.0,0.8105683783698713
-0.9299999999999999,-1.0,0.7888177510984307
-0.92,-1.0,0.7639540205399551
-0.91,-1.0,0.7360753124798013
-0.9,-1.0,0.7052916514421125
-0.89,-1.0,0.671724526473287
-0.88,-1.0,0.6355064116802174
-0.87,-1.0,0.5967802434155073
-0.86,-1.0,0.5556988561729959
-0.85,-1.0,0.5124243794198282
-0.84,-1.0,0.4671275977455208
-0.83,-1.0,0.41998727685321136
-0.8200000000000001,-1.0,0.37118945805309783
-0.81,-1.0,0.3209267240423812
-0.8,-1.0,0.26939743886934325
-0.79,-1.0,0.2168049650810706
-0.78,-1.0,0.16335686114438971
-0.77,-1.0,0.10926406230742282
-0.76,-1.0,0.054740048134530386
-0.75,-1.0,2.7755575615628914e-17
-0.74,-1.0,-0.05474004813453025
-0.73,-1.0,-0.10926406230742275
-0.72,-1.0,-0.16335686114438963
-0.71,-1.0,-0.21680496508107042
-0.7,-1.0,-0.2693974388693432
-0.69,-1.0,-0.3209267240423815
-0.6799999999999999,-1.0,-0.37118945805309794
-0.6699999999999999,-1.0,-0.41998727685321147
-0.6599999999999999,-1.0,-0.4671275977455207
-0.6499999999999999,-1.0,-0.5124243794198282
-0.64,-1.0,-0.5556988561729962
-0.63,-1.0,-0.5967802434155081
-0.62,-1.0,-0.6355064116802174
-0.61,-1.0,-0.6717245264732876
-0.6,-1.0,-0.7052916514421123
-0.59,-1.0,-0.7360753124798012
-0.5800000000000001,-1.0,-0.7639540205399552
-0.5700000000000001,-1.0,-0.7888177510984307
-0.56,-1.0,-0.8105683783698716
-0.55,-1.0,-0.8291200625653543
-0.54,-1.0,-0.8443995886628168
-0.53,-1.0,-0.8563466553533041
-0.52,-1.0,-0.8649141130226853
-0.51,-1.0,-0.8700681498296365
-0.5,-1.0,-0.8717884251455388
-0.49,-1.0,-0.8700681498296368
-0.48,-1.0,-0.8649141130226847
-0.47,-1.0,-0.8563466553533041
-0.45999999999999996,-1.0,-0.8443995886628167
-0.44999999999999996,-1.0,-0.829120062565354
-0.43999999999999995,-1.0,-0.8105683783698718
-0.42999999999999994,-1.0,-0.7888177510984304
-0.42000000000000004,-1.0,-0.763954020539955
-0.41000000000000003,-1.0,-0.7360753124798008
-0.4,-1.0,-0.7052916514421119
-0.39,-1.0,-0.6717245264732871
-0.38,-1.0,-0.6355064116802165
-0.37,-1.0,-0.5967802434155075
-0.36,-1.0,-0.5556988561729959
-0.35,-1.0,-0.512424379419828
-0.33999999999999997,-1.0,-0.4671275977455208
-0.32999999999999996,-1.0,-0.41998727685321147
-0.31999999999999995,-1.0,-0.3711894580530977
-0.30999999999999994,-1.0,-0.3209267240423811
-0.29999999999999993,-1.0,-0.2693974388693432
-0.29000000000000004,-1.0,-0.2168049650810704
-0.28,-1.0,-0.1633568611443897
-0.27,-1.0,-0.10926406230742278
-0.26,-1.0,-0.05474004813453029
-0.25,-1.0,-2.2551405187698492e-17
-0.24,-1.0,0.05474004813453041
-0.22999999999999998,-1.0,0.10926406230742283
-0.21999999999999997,-1.0,0.16335686114438966
-0.20999999999999996,-1.0,0.21680496508107067
-0.19999999999999996,-1.0,0.2693974388693433
-0.18999999999999995,-1.0,0.3209267240423815
-0.17999999999999994,-1.0,0.371189458053098
-0.16999999999999993,-1.0,0.4199872768532118
-0.16000000000000003,-1.0,0.46712759774552093
-0.15000000000000002,-1.0,0.5124243794198282
-0.14,-1.0,0.5556988561729962
-0.13,-1.0,0.5967802434155078
-0.12,-1.0,0.6355064116802172
-0.10999999999999999,-1.0,0.6717245264732874
-0.09999999999999998,-1.0,0.7052916514421126
-0.08999999999999997,-1.0,0.7360753124798016
-0.07999999999999996,-1.0,0.7639540205399554
-0.06999999999999995,-1.0,0.7888177510984309
-0.05999999999999994,-1.0,0.8105683783698718
-0.04999999999999993,-1.0,0.8291200625653543
-0.040000000000000036,-1.0,0.8443995886628166
-0.030000000000000027,-1.0,0.8563466553533043
-0.020000000000000018,-1.0,0.8649141130226848
-0.010000000000000009,-1.0,0.8700681498296368
0.0,-1.0,0.8717884251455386
0.010000000000000009,-1.0,0.8700681498296369
0.020000000000000018,-1.0,0.864914113022685
0.030000000000000027,-1.0,0.8563466553533045
0.040000000000000036,-1.0,0.8443995886628167
0.050000000000000044,-1.0,0.8291200625653539
0.06000000000000005,-1.0,0.8105683783698717
0.07000000000000006,-1.0,0.7888177510984301
0.08000000000000007,-1.0,0.7639540205399551
0.09000000000000008,-1.0,0.7360753124798012
0.10000000000000009,-1.0,0.7052916514421124
0.1100000000000001,-1.0,0.6717245264732874
0.1200000000000001,-1.0,0.6355064116802172
0.13000000000000012,-1.0,0.5967802434155076
0.14000000000000012,-1.0,0.5556988561729959
0.15000000000000013,-1.0,0.5124243794198279
0.15999999999999992,-1.0,0.4671275977455206
0.16999999999999993,-1.0,0.41998727685321124
0.17999999999999994,-1.0,0.3711894580530977
0.18999999999999995,-1.0,0.3209267240423812
0.19999999999999996,-1.0,0.2693974388693431
0.20999999999999996,-1.0,0.21680496508107036
0.21999999999999997,-1.0,0.16335686114438958
0.22999999999999998,-1.0,0.1092640623074227
0.24,-1.0,0.054740048134530164
0.25,-1.0,-1.231653667943533e-16
0.26,-1.0,-0.054740048134530456
0.27,-1.0,-0.10926406230742286
0.28,-1.0,-0.1633568611443898
0.29000000000000004,-1.0,-0.2168049650810706
0.30000000000000004,-1.0,-0.2693974388693433
0.31000000000000005,-1.0,-0.32092672404238143
0.32000000000000006,-1.0,-0.3711894580530979
0.33000000000000007,-1.0,-0.4199872768532116
0.3400000000000001,-1.0,-0.4671275977455209
0.3500000000000001,-1.0,-0.512424379419828
0.3600000000000001,-1.0,-0.5556988561729962
0.3700000000000001,-1.0,-0.5967802434155077
0.3800000000000001,-1.0,-0.6355064116802172
0.3900000000000001,-1.0,-0.6717245264732874
0.40000000000000013,-1.0,-0.7052916514421124
0.4099999999999999,-1.0,-0.7360753124798015
0.41999999999999993,-1.0,-0.7639540205399552
0.42999999999999994,-1.0,-0.7888177510984307
0.43999999999999995,-1.0,-0.8105683783698717
0.44999999999999996,-1.0,-0.829120062565354
0.45999999999999996,-1.0,-0.8443995886628166
0.47,-1.0,-0.8563466553533043
0.48,-1.0,-0.864914113022685
0.49,-1.0,-0.8700681498296368
0.5,-1.0,-0.8717884251455383
0.51,-1.0,-0.8700681498296368
0.52,-1.0,-0.864914113022685
0.53,-1.0,-0.8563466553533039
0.54,-1.0,-0.8443995886628168
0.55,-1.0,-0.8291200625653536
0.56,-1.0,-0.8105683783698718
0.5700000000000001,-1.0,-0.7888177510984302
0.5800000000000001,-1.0,-0.7639540205399551
0.5900000000000001,-1.0,-0.7360753124798012
0.6000000000000001,-1.0,-0.7052916514421123
0.6100000000000001,-1.0,-0.6717245264732872
0.6200000000000001,-1.0,-0.6355064116802172
0.6300000000000001,-1.0,-0.5967802434155075
0.6400000000000001,-1.0,-0.5556988561729959
0.6500000000000001,-1.0,-0.5124243794198278
0.6600000000000001,-1.0,-0.4671275977455206
0.6699999999999999,-1.0,-0.41998727685321136
0.6799999999999999,-1.0,-0.37118945805309755
0.69,-1.0,-0.3209267240423811
0.7,-1.0,-0.269397438869343
0.71,-1.0,-0.21680496508107022
0.72,-1.0,-0.16335686114438935
0.73,-1.0,-0.10926406230742255
0.74,-1.0,-0.05474004813453011
0.75,-1.0,1.1275702593849246e-16
0.76,-1.0,0.05474004813453038
0.77,-1.0,0.10926406230742282
0.78,-1.0,0.1633568611443898
0.79,-1.0,0.2168049650810706
0.8,-1.0,0.2693974388693433
0.81,-1.0,0.3209267240423813
0.8200000000000001,-1.0,0.37118945805309794
0.8300000000000001,-1.0,0.41998727685321163
0.8400000000000001,-1.0,0.46712759774552104
0.8500000000000001,-1.0,0.5124243794198284
0.8600000000000001,-1.0,0.5556988561729963
0.8700000000000001,-1.0,0.5967802434155078
0.8800000000000001,-1.0,0.6355064116802174
0.8900000000000001,-1.0,0.6717245264732874
0.9000000000000001,-1.0,0.7052916514421126
0.9100000000000001,-1.0,0.7360753124798013
0.9199999999999999,-1.0,0.7639540205399555
0.9299999999999999,-1.0,0.7888177510984308
0.94,-1.0,0.8105683783698718
0.95,-1.0,0.829120062565354
0.96,-1.0,0.8443995886628164
0.97,-1.0,0.8563466553533041
0.98,-1.0,0.8649141130226845
0.99,-1.0,0.8700681498296368
1.0,-1.0,0.8717884251455383

-1.0,-0.99,0.8700681498296368
-0.99,-0.99,0.8678457758027778
-0.98,-0.99,0.8621984109798455
-0.97,-0.99,0.8531483429297615
-0.96,-0.99,0.8407312881365365
-0.95,-0.99,0.8249962510426265
-0.94,-0.99,0.8060053306507868
-0.9299999999999999,-0.99,0.7838334754476777
-0.92,-0.99,0.7585681876164285
-0.91,-0.99,0.7303091777054971
-0.9,-0.99,0.699167971116688
-0.89,-0.99,0.6652674679653446
-0.88,-0.99,0.6287414580497366
-0.87,-0.99,0.589734092843856
-0.86,-0.99,0.5483993165973998
-0.85,-0.99,0.5049002587881494
-0.84,-0.99,0.4594085903244493
-0.83,-0.99,0.41210384603855893
-0.8200000000000001,-0.99,0.36317271614469265
-0.81,-0.99,0.31280830945803517
-0.8,-0.99,0.26120939128246984
-0.79,-0.99,0.20857959897473186
-0.78,-0.99,0.15512663828079526
-0.77,-0.99,0.10106146361618407
-0.76,-0.99,0.046597445525270655
-0.75,-0.99,-0.008050471394783036
-0.74,-0.99,-0.0626666167821521
-0.73,-0.99,-0.1170354456627359
-0.72,-0.99,-0.17094238910769805
-0.71,-0.99,-0.224174701039001
-0.7,-0.99,-0.2765222978409822
-0.69,-0.99,-0.3277785874644059
-0.6799999999999999,-0.99,-0.37774128475089985
-0.6699999999999999,-0.99,-0.4262132097600597
-0.6599999999999999,-0.99,-0.4730030659485903
-0.6499999999999999,-0.99,-0.5179261951303675
-0.64,-0.99,-0.5608053062379363
-0.63,-0.99,-0.6014711750093572
-0.62,-0.99,-0.6397633118390583
-0.61,-0.99,-0.675530595156985
-0.6,-0.99,-0.7086318678364001
-0.59,-0.99,-0.7389364942765707
-0.5800000000000001,-0.99,-0.7663248759618034
-0.5700000000000001,-0.99,-0.7906889234621488
-0.56,-0.99,-0.8119324830129979
-0.55,-0.99,-0.8299717159900617
-0.54,-0.99,-0.8447354297821216
-0.53,-0.99,-0.8561653587557404
-0.52,-0.99,-0.8642163942030952
-0.51,-0.99,-0.8688567623654462
-0.5,-0.99,-0.8700681498296367
-0.49,-0.99,-0.8678457758027772
-0.48,-0.99,-0.8621984109798453
-0.47,-0.99,-0.8531483429297615
-0.45999999999999996,-0.99,-0.8407312881365365
-0.44999999999999996,-0.99,-0.824996251042627
-0.43999999999999995,-0.99,-0.8060053306507868
-0.42999999999999994,-0.99,-0.7838334754476776
-0.42000000000000004,-0.99,-0.7585681876164281
-0.41000000000000003,-0.99,-0.7303091777054967
-0.4,-0.99,-0.6991679711166883
-0.39,-0.99,-0.6652674679653439
-0.38,-0.99,-0.6287414580497368
-0.37,-0.99,-0.5897340928438559
-0.36,-0.99,-0.5483993165973996
-0.35,-0.99,-0.5049002587881495
-0.33999999999999997,-0.99,-0.45940859032444925
-0.32999999999999996,-0.99,-0.41210384603855876
-0.31999999999999995,-0.99,-0.3631727161446926
-0.30999999999999994,-0.99,-0.3128083094580352
-0.29999999999999993,-0.99,-0.26120939128246956
-0.29000000000000004,-0.99,-0.20857959897473183
-0.28,-0.99,-0.1551266382807952
-0.27,-0.99,-0.10106146361618398
-0.26,-0.99,-0.046597445525270675
-0.25,-0.99,0.008050471394783203
-0.24,-0.99,0.06266661678215218
-0.22999999999999998,-0.99,0.11703544566273594
-0.21999999999999997,-0.99,0.17094238910769818
-0.20999999999999996,-0.99,0.2241747010390011
-0.19999999999999996,-0.99,0.2765222978409822
-0.18999999999999995,-0.99,0.3277785874644059
-0.17999999999999994,-0.99,0.3777412847509002
-0.16999999999999993,-0.99,0.4262132097600598
-0.16000000000000003,-0.99,0.4730030659485905
-0.15000000000000002,-0.99,0.5179261951303675
-0.14,-0.99,0.5608053062379361
-0.13,-0.99,0.6014711750093571
-0.12,-0.99,0.6397633118390581
-0.10999999999999999,-0.99,0.6755305951569854
-0.09999999999999998,-0.99,0.7086318678364005
-0.08999999999999997,-0.99,0.7389364942765708
-0.07999999999999996,-0.99,0.766324875961804
-0.06999999999999995,-0.99,0.7906889234621493
-0.05999999999999994,-0.99,0.8119324830129979
-0.04999999999999993,-0.99,0.8299717159900615
-0.040000000000000036,-0.99,0.8447354297821218
-0.030000000000000027,-0.99,0.8561653587557398
-0.020000000000000018,-0.99,0.8642163942030956
-0.010000000000000009,-0.99,0.868856762365446
0.0,-0.99,0.870068149829637
0.010000000000000009,-0.99,0.8678457758027773
0.020000000000000018,-0.99,0.8621984109798457
0.030000000000000027,-0.99,0.8531483429297616
0.040000000000000036,-0.99,0.8407312881365365
0.050000000000000044,-0.99,0.824996251042627
0.06000000000000005,-0.99,0.8060053306507866
0.07000000000000006,-0.99,0.7838334754476778
0.08000000000000007,-0.99,0.7585681876164283
0.09000000000000008,-0.99,0.730309177705497
0.10000000000000009,-0.99,0.6991679711166884
0.1100000000000001,-0.99,0.6652674679653444
0.1200000000000001,-0.99,0.6287414580497368
0.13000000000000012,-0.99,0.5897340928438561
0.14000000000000012,-0.99,0.5483993165973995
0.15000000000000013,-0.99,0.5049002587881491
0.15999999999999992,-0.99,0.4594085903244492
0.16999999999999993,-0.99,0.41210384603855865
0.17999999999999994,-0.99,0.36317271614469265
0.18999999999999995,-0.99,0.3128083094580351
0.19999999999999996,-0.99,0.26120939128246956
0.20999999999999996,-0.99,0.20857959897473177
0.21999999999999997,-0.99,0.15512663828079518
0.22999999999999998,-0.99,0.10106146361618387
0.24,-0.99,0.04659744552527051
0.25,-0.99,-0.008050471394783234
0.26,-0.99,-0.06266661678215224
0.27,-0.99,-0.11703544566273612
0.28,-0.99,-0.1709423891076982
0.29000000000000004,-0.99,-0.22417470103900117
0.30000000000000004,-0.99,-0.27652229784098226
0.31000000000000005,-0.99,-0.3277785874644058
0.32000000000000006,-0.99,-0.3777412847509001
0.33000000000000007,-0.99,-0.42621320976005994
0.3400000000000001,-0.99,-0.4730030659485902
0.3500000000000001,-0.99,-0.5179261951303675
0.3600000000000001,-0.99,-0.560805306237936
0.3700000000000001,-0.99,-0.601471175009357
0.3800000000000001,-0.99,-0.6397633118390581
0.3900000000000001,-0.99,-0.675530595156985
0.40000000000000013,-0.99,-0.7086318678364005
0.4099999999999999,-0.99,-0.7389364942765706
0.41999999999999993,-0.99,-0.7663248759618035
0.42999999999999994,-0.99,-0.790688923462149
0.43999999999999995,-0.99,-0.8119324830129977
0.44999999999999996,-0.99,-0.8299717159900615
0.45999999999999996,-0.99,-0.8447354297821219
0.47,-0.99,-0.85616535875574
0.48,-0.99,-0.8642163942030956
0.49,-0.99,-0.8688567623654457
0.5,-0.99,-0.8700681498296368
0.51,-0.99,-0.8678457758027776
0.52,-0.99,-0.8621984109798452
0.53,-0.99,-0.8531483429297617
0.54,-0.99,-0.8407312881365362
0.55,-0.99,-0.824996251042627
0.56,-0.99,-0.8060053306507866
0.5700000000000001,-0.99,-0.7838334754476777
0.5800000000000001,-0.99,-0.7585681876164283
0.5900000000000001,-0.99,-0.730309177705497
0.6000000000000001,-0.99,-0.6991679711166883
0.6100000000000001,-0.99,-0.6652674679653445
0.6200000000000001,-0.99,-0.6287414580497369
0.6300000000000001,-0.99,-0.5897340928438559
0.6400000000000001,-0.99,-0.5483993165973994
0.6500000000000001,-0.99,-0.5049002587881493
0.6600000000000001,-0.99,-0.4594085903244493
0.6699999999999999,-0.99,-0.4121038460385586
0.6799999999999999,-0.99,-0.3631727161446926
0.69,-0.99,-0.31280830945803495
0.7,-0.99,-0.26120939128246945
0.71,-0.99,-0.20857959897473144
0.72,-0.99,-0.15512663828079498
0.73,-0.99,-0.10106146361618379
0.74,-0.99,-0.046597445525270516
0.75,-0.99,0.008050471394783158
0.76,-0.99,0.06266661678215221
0.77,-0.99,0.11703544566273609
0.78,-0.99,0.1709423891076982
0.79,-0.99,0.22417470103900114
0.8,-0.99,0.2765222978409821
0.81,-0.99,0.32777858746440597
0.8200000000000001,-0.99,0.3777412847509002
0.8300000000000001,-0.99,0.42621320976006
0.8400000000000001,-0.99,0.47300306594859054
0.8500000000000001,-0.99,0.5179261951303675
0.8600000000000001,-0.99,0.5608053062379361
0.8700000000000001,-0.99,0.6014711750093573
0.8800000000000001,-0.99,0.6397633118390582
0.8900000000000001,-0.99,0.6755305951569854
0.9000000000000001,-0.99,0.7086318678364003
0.9100000000000001,-0.99,0.7389364942765708
0.9199999999999999,-0.99,0.7663248759618037
0.9299999999999999,-0.99,0.7906889234621493
0.94,-0.99,0.8119324830129975
0.95,-0.99,0.829971715990061
0.96,-0.99,0.8447354297821215
0.97,-0.99,0.8561653587557397
0.98,-0.99,0.8642163942030956
0.99,-0.99,0.8688567623654457
1.0,-0.99,0.8700681498296368

-1.0,-0.98,0.8649141130226852
-0.99,-0.98,0.8621984109798455
-0.98,-0.98,0.8560800057098541
-0.97,-0.98,0.8465830437630778
-0.96,-0.98,0.8337450053095714
-0.95,-0.98,0.8176165562219694
-0.94,-0.98,0.7982613481204328
-0.9299999999999999,-0.98,0.7757557671687849
-0.92,-0.98,0.7501886326132197
-0.91,-0.98,0.7216608462533154
-0.9,-0.98,0.6902849942287292
-0.89,-0.98,0.6561849026931377
-0.88,-0.98,0.6194951491289832
-0.87,-0.98,0.5803605312316291
-0.86,-0.98,0.5389354954590095
-0.85,-0.98,0.495383527502021
-0.84,-0.98,0.44987650708118765
-0.83,-0.98,0.4025940296159305
-0.8200000000000001,-0.98,0.3537226974434963
-0.81,-0.98,0.3034553833847813
-0.8,-0.98,0.25199046956342386
-0.79,-0.98,0.19953106448219443
-0.78,-0.98,0.1462842014465262
-0.77,-0.98,0.09246002149864306
-0.76,-0.98,0.03827094408687065
-0.75,-0.98,-0.01606917125688147
-0.74,-0.98,-0.07034586892298866
-0.73,-0.98,-0.1243449435824274
-0.72,-0.98,-0.17785328555734728
-0.71,-0.98,-0.23065972186760975
-0.7,-0.98,-0.2825558496340637
-0.69,-0.98,-0.3333368585495007
-0.6799999999999999,-0.98,-0.3828023391713678
-0.6699999999999999,-0.98,-0.4307570738462789
-0.6599999999999999,-0.98,-0.47701180714490643
-0.6499999999999999,-0.98,-0.5213839927666984
-0.64,-0.98,-0.5636985139667283
-0.63,-0.98,-0.6037883746614867
-0.62,-0.98,-0.6414953584861248
-0.61,-0.98,-0.6766706532021708
-0.6,-0.98,-0.7091754379914434
-0.59,-0.98,-0.7388814313184024
-0.5800000000000001,-0.98,-0.7656713971987643
-0.5700000000000001,-0.98,-0.7894396078763708
-0.56,-0.98,-0.8100922610823389
-0.55,-0.98,-0.8275478502297652
-0.54,-0.98,-0.8417374860829853
-0.53,-0.98,-0.8526051686319124
-0.52,-0.98,-0.8601080080985013
-0.51,-0.98,-0.8642163942030954
-0.5,-0.98,-0.8649141130226848
-0.49,-0.98,-0.8621984109798453
-0.48,-0.98,-0.8560800057098541
-0.47,-0.98,-0.8465830437630779
-0.45999999999999996,-0.98,-0.8337450053095719
-0.44999999999999996,-0.98,-0.8176165562219695
-0.43999999999999995,-0.98,-0.7982613481204326
-0.42999999999999994,-0.98,-0.7757557671687845
-0.42000000000000004,-0.98,-0.7501886326132194
-0.41000000000000003,-0.98,-0.7216608462533156
-0.4,-0.98,-0.6902849942287286
-0.39,-0.98,-0.6561849026931379
-0.38,-0.98,-0.6194951491289834
-0.37,-0.98,-0.5803605312316289
-0.36,-0.98,-0.5389354954590098
-0.35,-0.98,-0.49538352750202086
-0.33999999999999997,-0.98,-0.4498765070811874
-0.32999999999999996,-0.98,-0.4025940296159305
-0.31999999999999995,-0.98,-0.35372269744349627
-0.30999999999999994,-0.98,-0.303455383384781
-0.29999999999999993,-0.98,-0.2519904695634238
-0.29000000000000004,-0.98,-0.19953106448219435
-0.28,-0.98,-0.14628420144652612
-0.27,-0.98,-0.09246002149864309
-0.26,-0.98,-0.03827094408687048
-0.25,-0.98,0.016069171256881554
-0.24,-0.98,0.07034586892298873
-0.22999999999999998,-0.98,0.1243449435824275
-0.21999999999999997,-0.98,0.1778532855573474
-0.20999999999999996,-0.98,0.2306597218676098
-0.19999999999999996,-0.98,0.28255584963406377
-0.18999999999999995,-0.98,0.333336858549501
-0.17999999999999994,-0.98,0.38280233917136774
-0.16999999999999993,-0.98,0.43075707384627904
-0.16000000000000003,-0.98,0.4770118071449065
-0.15000000000000002,-0.98,0.5213839927666982
-0.14,-0.98,0.5636985139667285
-0.13,-0.98,0.6037883746614864
-0.12,-0.98,0.6414953584861253
-0.10999999999999999,-0.98,0.6766706532021711
-0.09999999999999998,-0.98,0.7091754379914436
-0.08999999999999997,-0.98,0.7388814313184029
-0.07999999999999996,-0.98,0.7656713971987645
-0.06999999999999995,-0.98,0.7894396078763708
-0.05999999999999994,-0.98,0.8100922610823389
-0.04999999999999993,-0.98,0.8275478502297653
-0.040000000000000036,-0.98,0.8417374860829847
-0.030000000000000027,-0.98,0.8526051686319129
-0.020000000000000018,-0.98,0.8601080080985012
-0.010000000000000009,-0.98,0.8642163942030958
0.0,-0.98,0.864914113022685
0.010000000000000009,-0.98,0.8621984109798457
0.020000000000000018,-0.98,0.8560800057098541
0.030000000000000027,-0.98,0.8465830437630778
0.040000000000000036,-0.98,0.8337450053095719
0.050000000000000044,-0.98,0.8176165562219695
0.06000000000000005,-0.98,0.798261348120433
0.07000000000000006,-0.98,0.7757557671687846
0.08000000000000007,-0.98,0.7501886326132196
0.09000000000000008,-0.98,0.7216608462533156
0.10000000000000009,-0.98,0.690284994228729
0.1100000000000001,-0.98,0.6561849026931379
0.1200000000000001,-0.98,0.6194951491289834
0.13000000000000012,-0.98,0.580360531231629
0.14000000000000012,-0.98,0.5389354954590092
0.15000000000000013,-0.98,0.49538352750202086
0.15999999999999992,-0.98,0.4498765070811873
0.16999999999999993,-0.98,0.4025940296159305
0.17999999999999994,-0.98,0.35372269744349616
0.18999999999999995,-0.98,0.30345538338478106
0.19999999999999996,-0.98,0.25199046956342375
0.20999999999999996,-0.98,0.19953106448219443
0.21999999999999997,-0.98,0.14628420144652604
0.22999999999999998,-0.98,0.09246002149864294
0.24,-0.98,0.03827094408687046
0.25,-0.98,-0.01606917125688162
0.26,-0.98,-0.07034586892298891
0.27,-0.98,-0.12434494358242755
0.28,-0.98,-0.1778532855573475
0.29000000000000004,-0.98,-0.23065972186760975
0.30000000000000004,-0.98,-0.2825558496340637
0.31000000000000005,-0.98,-0.33333685854950085
0.32000000000000006,-0.98,-0.38280233917136797
0.33000000000000007,-0.98,-0.4307570738462788
0.3400000000000001,-0.98,-0.4770118071449065
0.3500000000000001,-0.98,-0.521383992766698
0.3600000000000001,-0.98,-0.5636985139667283
0.3700000000000001,-0.98,-0.6037883746614864
0.3800000000000001,-0.98,-0.6414953584861249
0.3900000000000001,-0.98,-0.6766706532021712
0.40000000000000013,-0.98,-0.7091754379914432
0.4099999999999999,-0.98,-0.7388814313184024
0.41999999999999993,-0.98,-0.7656713971987645
0.42999999999999994,-0.98,-0.7894396078763706
0.43999999999999995,-0.98,-0.8100922610823387
0.44999999999999996,-0.98,-0.8275478502297655
0.45999999999999996,-0.98,-0.8417374860829847
0.47,-0.98,-0.8526051686319129
0.48,-0.98,-0.8601080080985007
0.49,-0.98,-0.8642163942030956
0.5,-0.98,-0.8649141130226851
0.51,-0.98,-0.8621984109798451
0.52,-0.98,-0.8560800057098542
0.53,-0.98,-0.8465830437630777
0.54,-0.98,-0.8337450053095717
0.55,-0.98,-0.817616556221969
0.56,-0.98,-0.7982613481204327
0.5700000000000001,-0.98,-0.7757557671687847
0.5800000000000001,-0.98,-0.7501886326132197
0.5900000000000001,-0.98,-0.7216608462533154
0.6000000000000001,-0.98,-0.6902849942287291
0.6100000000000001,-0.98,-0.656184902693138
0.6200000000000001,-0.98,-0.6194951491289832
0.6300000000000001,-0.98,-0.5803605312316289
0.6400000000000001,-0.98,-0.5389354954590093
0.6500000000000001,-0.98,-0.49538352750202097
0.6600000000000001,-0.98,-0.4498765070811873
0.6699999999999999,-0.98,-0.4025940296159305
0.6799999999999999,-0.98,-0.353722697443496
0.69,-0.98,-0.30345538338478084
0.7,-0.98,-0.25199046956342347
0.71,-0.98,-0.19953106448219418
0.72,-0.98,-0.14628420144652593
0.73,-0.98,-0.09246002149864292
0.74,-0.98,-0.03827094408687054
0.75,-0.98,0.016069171256881586
0.76,-0.98,0.07034586892298889
0.77,-0.98,0.1243449435824276
0.78,-0.98,0.17785328555734742
0.79,-0.98,0.23065972186760972
0.8,-0.98,0.2825558496340639
0.81,-0.98,0.333336858549501
0.8200000000000001,-0.98,0.38280233917136797
0.8300000000000001,-0.98,0.43075707384627904
0.8400000000000001,-0.98,0.47701180714490643
0.8500000000000001,-0.98,0.5213839927666982
0.8600000000000001,-0.98,0.5636985139667287
0.8700000000000001,-0.98,0.6037883746614865
0.8800000000000001,-0.98,0.6414953584861253
0.8900000000000001,-0.98,0.676670653202171
0.9000000000000001,-0.98,0.7091754379914437
0.9100000000000001,-0.98,0.7388814313184027
0.9199999999999999,-0.98,0.7656713971987646
0.9299999999999999,-0.98,0.7894396078763704
0.94,-0.98,0.8100922610823384
0.95,-0.98,0.8275478502297651
0.96,-0.98,0.8417374860829846
0.97,-0.98,0.852605168631913
0.98,-0.98,0.8601080080985009
0.99,-0.98,0.8642163942030956
1.0,-0.98,0.8649141130226852

-1.0,-0.97,0.8563466553533042
-0.99,-0.97,0.8531483429297616
-0.98,-0.97,0.8465830437630777
-0.97,-0.97,0.836676668089664
-0.96,-0.97,0.8234683118485107
-0.95,-0.97,0.8070101023873776
-0.94,-0.97,0.7873669927399674
-0.9299999999999999,-0.97,0.7646165052859749
-0.92,-0.97,0.7388484258056718
-0.91,-0.97,0.7101644491364519
-0.9,-0.97,0.6786777778297649
-0.89,-0.97,0.6445126753923679
-0.88,-0.97,0.6078039758750304
-0.87,-0.97,0.5686965517441367
-0.86,-0.97,0.5273447421362505
-0.85,-0.97,0.4839117437520477
-0.84,-0.97,0.4385689667935021
-0.83,-0.97,0.391495358486125
-0.8200000000000001,-0.97,0.3428766968560191
-0.81,-0.97,0.2929048575488849
-0.8,-0.97,0.2417770565845059
-0.79,-0.97,0.1896950720352182
-0.78,-0.97,0.1368644477000423
-0.77,-0.97,0.08349368191721279
-0.76,-0.97,0.029793404716490942
-0.75,-0.97,-0.024024453441334963
-0.74,-0.97,-0.07774749805715676
-0.73,-0.97,-0.1311637088176001
-0.72,-0.97,-0.18406227634233907
-0.71,-0.97,-0.23623443415241002
-0.7,-0.97,-0.2874742825761283
-0.69,-0.97,-0.33757960134102566
-0.6799999999999999,-0.97,-0.38635264764487964
-0.6699999999999999,-0.97,-0.43360093655621446
-0.6599999999999999,-0.97,-0.47913800066438694
-0.6499999999999999,-0.97,-0.5227841259812673
-0.64,-0.97,-0.5643670611902488
-0.63,-0.97,-0.6037226974434962
-0.62,-0.97,-0.6406957160245992
-0.61,-0.97,-0.6751402013205833
-0.6,-0.97,-0.7069202166841732
-0.59,-0.97,-0.7359103409136372
-0.5800000000000001,-0.97,-0.7619961632329696
-0.5700000000000001,-0.97,-0.7850747348189543
-0.56,-0.97,-0.8050549750931381
-0.55,-0.97,-0.8218580311752626
-0.54,-0.97,-0.8354175890795561
-0.53,-0.97,-0.845680135425746
-0.52,-0.97,-0.8526051686319128
-0.51,-0.97,-0.8561653587557398
-0.5,-0.97,-0.8563466553533041
-0.49,-0.97,-0.8531483429297615
-0.48,-0.97,-0.8465830437630779
-0.47,-0.97,-0.8366766680896645
-0.45999999999999996,-0.97,-0.8234683118485107
-0.44999999999999996,-0.97,-0.8070101023873775
-0.43999999999999995,-0.97,-0.7873669927399671
-0.42999999999999994,-0.97,-0.7646165052859746
-0.42000000000000004,-0.97,-0.738848425805672
-0.41000000000000003,-0.97,-0.7101644491364514
-0.4,-0.97,-0.6786777778297651
-0.39,-0.97,-0.644512675392368
-0.38,-0.97,-0.60780397587503
-0.37,-0.97,-0.5686965517441371
-0.36,-0.97,-0.5273447421362502
-0.35,-0.97,-0.4839117437520476
-0.33999999999999997,-0.97,-0.43856896679350216
-0.32999999999999996,-0.97,-0.39149535848612493
-0.31999999999999995,-0.97,-0.3428766968560189
-0.30999999999999994,-0.97,-0.2929048575488849
-0.29999999999999993,-0.97,-0.2417770565845058
-0.29000000000000004,-0.97,-0.18969507203521813
-0.28,-0.97,-0.13686444770004233
-0.27,-0.97,-0.08349368191721263
-0.26,-0.97,-0.029793404716490862
-0.25,-0.97,0.02402445344133506
-0.24,-0.97,0.07774749805715686
-0.22999999999999998,-0.97,0.13116370881760014
-0.21999999999999997,-0.97,0.18406227634233915
-0.20999999999999996,-0.97,0.23623443415241005
-0.19999999999999996,-0.97,0.2874742825761285
-0.18999999999999995,-0.97,0.33757960134102555
-0.17999999999999994,-0.97,0.38635264764487975
-0.16999999999999993,-0.97,0.4336009365562145
-0.16000000000000003,-0.97,0.4791380006643868
-0.15000000000000002,-0.97,0.5227841259812676
-0.14,-0.97,0.5643670611902485
-0.13,-0.97,0.6037226974434966
-0.12,-0.97,0.6406957160245994
-0.10999999999999999,-0.97,0.6751402013205834
-0.09999999999999998,-0.97,0.7069202166841735
-0.08999999999999997,-0.97,0.7359103409136372
-0.07999999999999996,-0.97,0.7619961632329697
-0.06999999999999995,-0.97,0.7850747348189543
-0.05999999999999994,-0.97,0.8050549750931381
-0.04999999999999993,-0.97,0.821858031175262
-0.040000000000000036,-0.97,0.8354175890795565
-0.030000000000000027,-0.97,0.8456801354257462
-0.020000000000000018,-0.97,0.8526051686319132
-0.010000000000000009,-0.97,0.85616535875574
0.0,-0.97,0.8563466553533043
0.010000000000000009,-0.97,0.8531483429297615
0.020000000000000018,-0.97,0.846583043763078
0.030000000000000027,-0.97,0.8366766680896645
0.040000000000000036,-0.97,0.8234683118485107
0.050000000000000044,-0.97,0.8070101023873779
0.06000000000000005,-0.97,0.7873669927399671
0.07000000000000006,-0.97,0.7646165052859747
0.08000000000000007,-0.97,0.7388484258056719
0.09000000000000008,-0.97,0.7101644491364517
0.10000000000000009,-0.97,0.678677777829765
0.1100000000000001,-0.97,0.6445126753923682
0.1200000000000001,-0.97,0.60780397587503
0.13000000000000012,-0.97,0.5686965517441364
0.14000000000000012,-0.97,0.5273447421362503
0.15000000000000013,-0.97,0.4839117437520475
0.15999999999999992,-0.97,0.4385689667935021
0.16999999999999993,-0.97,0.39149535848612493
0.17999999999999994,-0.97,0.3428766968560189
0.18999999999999995,-0.97,0.29290485754888484
0.19999999999999996,-0.97,0.2417770565845059
0.20999999999999996,-0.97,0.18969507203521802
0.21999999999999997,-0.97,0.13686444770004214
0.22999999999999998,-0.97,0.08349368191721263
0.24,-0.97,0.029793404716490786
0.25,-0.97,-0.024024453441335202
0.26,-0.97,-0.07774749805715692
0.27,-0.97,-0.13116370881760026
0.28,-0.97,-0.18406227634233913
0.29000000000000004,-0.97,-0.23623443415241005
0.30000000000000004,-0.97,-0.28747428257612845
0.31000000000000005,-0.97,-0.33757960134102577
0.32000000000000006,-0.97,-0.38635264764487953
0.33000000000000007,-0.97,-0.43360093655621446
0.3400000000000001,-0.97,-0.47913800066438667
0.3500000000000001,-0.97,-0.5227841259812673
0.3600000000000001,-0.97,-0.5643670611902484
0.3700000000000001,-0.97,-0.6037226974434962
0.3800000000000001,-0.97,-0.6406957160245995
0.3900000000000001,-0.97,-0.675140201320583
0.40000000000000013,-0.97,-0.706920216684173
0.4099999999999999,-0.97,-0.7359103409136372
0.41999999999999993,-0.97,-0.7619961632329694
0.42999999999999994,-0.97,-0.7850747348189541
0.43999999999999995,-0.97,-0.8050549750931384
0.44999999999999996,-0.97,-0.8218580311752621
0.45999999999999996,-0.97,-0.8354175890795565
0.47,-0.97,-0.8456801354257457
0.48,-0.97,-0.852605168631913
0.49,-0.97,-0.8561653587557403
0.5,-0.97,-0.8563466553533038
0.51,-0.97,-0.8531483429297617
0.52,-0.97,-0.8465830437630777
0.53,-0.97,-0.8366766680896642
0.54,-0.97,-0.8234683118485104
0.55,-0.97,-0.8070101023873776
0.56,-0.97,-0.7873669927399674
0.5700000000000001,-0.97,-0.7646165052859748
0.5800000000000001,-0.97,-0.7388484258056718
0.5900000000000001,-0.97,-0.7101644491364517
0.6000000000000001,-0.97,-0.6786777778297652
0.6100000000000001,-0.97,-0.6445126753923678
0.6200000000000001,-0.97,-0.6078039758750298
0.6300000000000001,-0.97,-0.5686965517441366
0.6400000000000001,-0.97,-0.5273447421362505
0.6500000000000001,-0.97,-0.4839117437520474
0.6600000000000001,-0.97,-0.4385689667935022
0.6699999999999999,-0.97,-0.3914953584861247
0.6799999999999999,-0.97,-0.3428766968560187