TITLE = "Solution" 
VARIABLES = "x", "y", "sol" 
ZONE STRANDID=1, SOLUTIONTIME= 0.3500000000000002, I= 201, J =201, DATAPACKING=POINT 
-1.0,-1.0,0.5899422319924472
-0.99,-1.0,0.61863678213705
-0.98,-1.0,0.6448898555308198
-0.97,-1.0,0.6685978432869598
-0.96,-1.0,0.6896671808089455
-0.95,-1.0,0.7080147170472423
-0.94,-1.0,0.7235680426585096
-0.9299999999999999,-1.0,0.7362657757721991
-0.92,-1.0,0.746057804236752
-0.91,-1.0,0.7529054833893724
-0.9,-1.0,0.7567817885688514
-0.89,-1.0,0.7576714217695605
-0.88,-1.0,0.7555708720156923
-0.87,-1.0,0.7504884292174743
-0.86,-1.0,0.7424441514546849
-0.85,-1.0,0.7314697858165721
-0.84,-1.0,0.7176086431105986
-0.83,-1.0,0.7009154269344722
-0.8200000000000001,-1.0,0.6814560177860339
-0.81,-1.0,0.6593072130630351
-0.8,-1.0,0.6345564239788906
-0.79,-1.0,0.6073013305905557
-0.78,-1.0,0.5776494962999665
-0.77,-1.0,0.5457179433504333
-0.76,-1.0,0.5116326909933091
-0.75,-1.0,0.4755282581475767
-0.74,-1.0,0.4375471325151322
-0.73,-1.0,0.39783920824692065
-0.72,-1.0,0.3565611943792041
-0.71,-1.0,0.31387599637458746
-0.7,-1.0,0.26995207320858305
-0.69,-1.0,0.22496277253899527
-0.6799999999999999,-1.0,0.17908564658191065
-0.6699999999999999,-1.0,0.1325017513942166
-0.6599999999999999,-1.0,0.08539493232806164
-0.6499999999999999,-1.0,0.03795109847724146
-0.64,-1.0,-0.00964251102106076
-0.63,-1.0,-0.05719806593360709
-0.62,-1.0,-0.10452788621122418
-0.61,-1.0,-0.15144518267621426
-0.6,-1.0,-0.19776479419390391
-0.59,-1.0,-0.24330391841905052
-0.5800000000000001,-1.0,-0.28788283323318437
-0.5700000000000001,-1.0,-0.33132560602570266
-0.56,-1.0,-0.3734607880195085
-0.55,-1.0,-0.4141220909010058
-0.54,-1.0,-0.453149043084104
-0.53,-1.0,-0.49038762301825445
-0.52,-1.0,-0.525690867041146
-0.51,-1.0,-0.5589194493771387
-0.5,-1.0,-0.5899422319924472
-0.49,-1.0,-0.6186367821370503
-0.48,-1.0,-0.6448898555308202
-0.47,-1.0,-0.6685978432869601
-0.45999999999999996,-1.0,-0.6896671808089456
-0.44999999999999996,-1.0,-0.7080147170472425
-0.43999999999999995,-1.0,-0.7235680426585099
-0.42999999999999994,-1.0,-0.7362657757721989
-0.42000000000000004,-1.0,-0.7460578042367525
-0.41000000000000003,-1.0,-0.7529054833893722
-0.4,-1.0,-0.7567817885688516
-0.39,-1.0,-0.7576714217695609
-0.38,-1.0,-0.7555708720156924
-0.37,-1.0,-0.7504884292174745
-0.36,-1.0,-0.7424441514546847
-0.35,-1.0,-0.7314697858165716
-0.33999999999999997,-1.0,-0.7176086431105988
-0.32999999999999996,-1.0,-0.7009154269344721
-0.31999999999999995,-1.0,-0.681456017786034
-0.30999999999999994,-1.0,-0.6593072130630353
-0.29999999999999993,-1.0,-0.6345564239788907
-0.29000000000000004,-1.0,-0.607301330590556
-0.28,-1.0,-0.5776494962999666
-0.27,-1.0,-0.5457179433504333
-0.26,-1.0,-0.511632690993309
-0.25,-1.0,-0.4755282581475767
-0.24,-1.0,-0.4375471325151323
-0.22999999999999998,-1.0,-0.39783920824692076
-0.21999999999999997,-1.0,-0.3565611943792042
-0.20999999999999996,-1.0,-0.3138759963745875
-0.19999999999999996,-1.0,-0.26995207320858294
-0.18999999999999995,-1.0,-0.22496277253899521
-0.17999999999999994,-1.0,-0.17908564658191053
-0.16999999999999993,-1.0,-0.13250175139421647
-0.16000000000000003,-1.0,-0.08539493232806154
-0.15000000000000002,-1.0,-0.037951098477241374
-0.14,-1.0,0.009642511021060816
-0.13,-1.0,0.057198065933607115
-0.12,-1.0,0.10452788621122418
-0.10999999999999999,-1.0,0.1514451826762142
-0.09999999999999998,-1.0,0.19776479419390394
-0.08999999999999997,-1.0,0.2433039184190506
-0.07999999999999996,-1.0,0.2878828332331843
-0.06999999999999995,-1.0,0.33132560602570243
-0.05999999999999994,-1.0,0.37346078801950844
-0.04999999999999993,-1.0,0.41412209090100593
-0.040000000000000036,-1.0,0.453149043084104
-0.030000000000000027,-1.0,0.4903876230182542
-0.020000000000000018,-1.0,0.525690867041146
-0.010000000000000009,-1.0,0.5589194493771388
0.0,-1.0,0.5899422319924472
0.010000000000000009,-1.0,0.61863678213705
0.020000000000000018,-1.0,0.6448898555308202
0.030000000000000027,-1.0,0.6685978432869601
0.040000000000000036,-1.0,0.6896671808089454
0.050000000000000044,-1.0,0.7080147170472425
0.06000000000000005,-1.0,0.7235680426585096
0.07000000000000006,-1.0,0.7362657757721989
0.08000000000000007,-1.0,0.7460578042367523
0.09000000000000008,-1.0,0.7529054833893722
0.10000000000000009,-1.0,0.7567817885688515
0.1100000000000001,-1.0,0.7576714217695606
0.1200000000000001,-1.0,0.7555708720156922
0.13000000000000012,-1.0,0.7504884292174744
0.14000000000000012,-1.0,0.7424441514546848
0.15000000000000013,-1.0,0.7314697858165723
0.15999999999999992,-1.0,0.717608643110599
0.16999999999999993,-1.0,0.700915426934472
0.17999999999999994,-1.0,0.6814560177860343
0.18999999999999995,-1.0,0.6593072130630351
0.19999999999999996,-1.0,0.634556423978891
0.20999999999999996,-1.0,0.6073013305905559
0.21999999999999997,-1.0,0.5776494962999668
0.22999999999999998,-1.0,0.5457179433504336
0.24,-1.0,0.5116326909933088
0.25,-1.0,0.4755282581475768
0.26,-1.0,0.437547132515132
0.27,-1.0,0.3978392082469206
0.28,-1.0,0.35656119437920414
0.29000000000000004,-1.0,0.31387599637458746
0.30000000000000004,-1.0,0.26995207320858283
0.31000000000000005,-1.0,0.22496277253899497
0.32000000000000006,-1.0,0.17908564658191034
0.33000000000000007,-1.0,0.13250175139421644
0.3400000000000001,-1.0,0.08539493232806156
0.3500000000000001,-1.0,0.03795109847724142
0.3600000000000001,-1.0,-0.009642511021060798
0.3700000000000001,-1.0,-0.05719806593360711
0.3800000000000001,-1.0,-0.10452788621122414
0.3900000000000001,-1.0,-0.15144518267621426
0.40000000000000013,-1.0,-0.19776479419390394
0.4099999999999999,-1.0,-0.24330391841905052
0.41999999999999993,-1.0,-0.2878828332331843
0.42999999999999994,-1.0,-0.3313256060257027
0.43999999999999995,-1.0,-0.37346078801950844
0.44999999999999996,-1.0,-0.41412209090100616
0.45999999999999996,-1.0,-0.45314904308410425
0.47,-1.0,-0.4903876230182545
0.48,-1.0,-0.5256908670411464
0.49,-1.0,-0.5589194493771386
0.5,-1.0,-0.5899422319924472
0.51,-1.0,-0.6186367821370505
0.52,-1.0,-0.6448898555308202
0.53,-1.0,-0.6685978432869599
0.54,-1.0,-0.6896671808089454
0.55,-1.0,-0.7080147170472422
0.56,-1.0,-0.7235680426585099
0.5700000000000001,-1.0,-0.7362657757721984
0.5800000000000001,-1.0,-0.746057804236752
0.5900000000000001,-1.0,-0.7529054833893721
0.6000000000000001,-1.0,-0.7567817885688513
0.6100000000000001,-1.0,-0.7576714217695608
0.6200000000000001,-1.0,-0.7555708720156922
0.6300000000000001,-1.0,-0.7504884292174744
0.6400000000000001,-1.0,-0.7424441514546848
0.6500000000000001,-1.0,-0.7314697858165717
0.6600000000000001,-1.0,-0.7176086431105986
0.6699999999999999,-1.0,-0.700915426934472
0.6799999999999999,-1.0,-0.681456017786034
0.69,-1.0,-0.6593072130630351
0.7,-1.0,-0.6345564239788908
0.71,-1.0,-0.6073013305905557
0.72,-1.0,-0.5776494962999665
0.73,-1.0,-0.5457179433504333
0.74,-1.0,-0.5116326909933091
0.75,-1.0,-0.47552825814757704
0.76,-1.0,-0.4375471325151322
0.77,-1.0,-0.39783920824692076
0.78,-1.0,-0.35656119437920414
0.79,-1.0,-0.3138759963745876
0.8,-1.0,-0.2699520732085831
0.81,-1.0,-0.22496277253899527
0.8200000000000001,-1.0,-0.17908564658191073
0.8300000000000001,-1.0,-0.1325017513942166
0.8400000000000001,-1.0,-0.08539493232806175
0.8500000000000001,-1.0,-0.03795109847724158
0.8600000000000001,-1.0,0.009642511021060634
0.8700000000000001,-1.0,0.057198065933606976
0.8800000000000001,-1.0,0.10452788621122402
0.8900000000000001,-1.0,0.15144518267621412
0.9000000000000001,-1.0,0.19776479419390397
0.9100000000000001,-1.0,0.24330391841905055
0.9199999999999999,-1.0,0.2878828332331842
0.9299999999999999,-1.0,0.3313256060257025
0.94,-1.0,0.37346078801950844
0.95,-1.0,0.41412209090100593
0.96,-1.0,0.45314904308410414
0.97,-1.0,0.4903876230182545
0.98,-1.0,0.5256908670411464
0.99,-1.0,0.5589194493771388
1.0,-1.0,0.5899422319924472

-1.0,-0.99,0.61863678213705
-0.99,-0.99,0.6483233805875095
-0.98,-0.99,0.6754513428455687
-0.97,-0.99,0.6999136072377821
-0.96,-0.99,0.7216136323823389
-0.95,-0.99,0.7404657781937919
-0.94,-0.99,0.7563956438653503
-0.9299999999999999,-0.99,0.7693403614948706
-0.92,-0.99,0.779248844195749
-0.91,-0.99,0.7860819877135202
-0.9,-0.99,0.7898128247524852
-0.89,-0.99,0.7904266314033093
-0.88,-0.99,0.7879209852515627
-0.87,-0.99,0.7823057749378862
-0.86,-0.99,0.7736031611320415
-0.85,-0.99,0.7618474890748743
-0.84,-0.99,0.7470851530333396
-0.83,-0.99,0.729374413203522
-0.8200000000000001,-0.99,0.7087851657842634
-0.81,-0.99,0.685398667128795
-0.8,-0.99,0.6593072130630351
-0.79,-0.99,0.6306137746361296
-0.78,-0.99,0.5994315917407644
-0.77,-0.99,0.5658837262070431
-0.76,-0.99,0.5301025761336655
-0.75,-0.99,0.49222935337311924
-0.74,-0.99,0.45241352623300957
-0.73,-0.99,0.4108122295929382
-0.72,-0.99,0.3675896447649185
-0.71,-0.99,0.32291635154474607
-0.7,-0.99,0.27696865501147466
-0.69,-0.99,0.22992788973181513
-0.6799999999999999,-0.99,0.18197970411544498
-0.6699999999999999,-0.99,0.1333133277455497
-0.6599999999999999,-0.99,0.08412082457610875
-0.6499999999999999,-0.99,0.03459633494321504
-0.64,-0.99,-0.015064690618137516
-0.63,-0.99,-0.06466626272802281
-0.62,-0.99,-0.11401262664212579
-0.61,-0.99,-0.1629090348062867
-0.6,-0.99,-0.21116251543612585
-0.59,-0.99,-0.25858263408851545
-0.5800000000000001,-0.99,-0.30498224521932593
-0.5700000000000001,-0.99,-0.3501782307613899
-0.56,-0.99,-0.39399222280785456
-0.55,-0.99,-0.4362513075488217
-0.54,-0.99,-0.47678870768315795
-0.53,-0.99,-0.5154444406123095
-0.52,-0.99,-0.5520659498185297
-0.51,-0.99,-0.5865087069357575
-0.5,-0.99,-0.6186367821370502
-0.49,-0.99,-0.6483233805875099
-0.48,-0.99,-0.6754513428455693
-0.47,-0.99,-0.6999136072377821
-0.45999999999999996,-0.99,-0.721613632382339
-0.44999999999999996,-0.99,-0.7404657781937922
-0.43999999999999995,-0.99,-0.7563956438653501
-0.42999999999999994,-0.99,-0.7693403614948711
-0.42000000000000004,-0.99,-0.779248844195749
-0.41000000000000003,-0.99,-0.7860819877135203
-0.4,-0.99,-0.7898128247524855
-0.39,-0.99,-0.7904266314033095
-0.38,-0.99,-0.787920985251563
-0.37,-0.99,-0.782305774937886
-0.36,-0.99,-0.7736031611320413
-0.35,-0.99,-0.7618474890748744
-0.33999999999999997,-0.99,-0.7470851530333393
-0.32999999999999996,-0.99,-0.729374413203522
-0.31999999999999995,-0.99,-0.7087851657842636
-0.30999999999999994,-0.99,-0.6853986671287949
-0.29999999999999993,-0.99,-0.6593072130630353
-0.29000000000000004,-0.99,-0.6306137746361296
-0.28,-0.99,-0.5994315917407644
-0.27,-0.99,-0.5658837262070431
-0.26,-0.99,-0.5301025761336658
-0.25,-0.99,-0.49222935337311924
-0.24,-0.99,-0.4524135262330098
-0.22999999999999998,-0.99,-0.41081222959293834
-0.21999999999999997,-0.99,-0.3675896447649186
-0.20999999999999996,-0.99,-0.322916351544746
-0.19999999999999996,-0.99,-0.2769686550114746
-0.18999999999999995,-0.99,-0.22992788973181505
-0.17999999999999994,-0.99,-0.18197970411544484
-0.16999999999999993,-0.99,-0.13331332774554952
-0.16000000000000003,-0.99,-0.08412082457610864
-0.15000000000000002,-0.99,-0.03459633494321499
-0.14,-0.99,0.01506469061813755
-0.13,-0.99,0.06466626272802281
-0.12,-0.99,0.11401262664212579
-0.10999999999999999,-0.99,0.16290903480628677
-0.09999999999999998,-0.99,0.2111625154361259
-0.08999999999999997,-0.99,0.25858263408851545
-0.07999999999999996,-0.99,0.3049822452193257
-0.06999999999999995,-0.99,0.3501782307613899
-0.05999999999999994,-0.99,0.3939922228078546
-0.04999999999999993,-0.99,0.43625130754882174
-0.040000000000000036,-0.99,0.47678870768315773
-0.030000000000000027,-0.99,0.5154444406123095
-0.020000000000000018,-0.99,0.5520659498185297
-0.010000000000000009,-0.99,0.5865087069357575
0.0,-0.99,0.61863678213705
0.010000000000000009,-0.99,0.6483233805875099
0.020000000000000018,-0.99,0.6754513428455691
0.030000000000000027,-0.99,0.699913607237782
0.040000000000000036,-0.99,0.721613632382339
0.050000000000000044,-0.99,0.7404657781937919
0.06000000000000005,-0.99,0.7563956438653501
0.07000000000000006,-0.99,0.7693403614948708
0.08000000000000007,-0.99,0.7792488441957488
0.09000000000000008,-0.99,0.7860819877135202
0.10000000000000009,-0.99,0.7898128247524852
0.1100000000000001,-0.99,0.7904266314033093
0.1200000000000001,-0.99,0.7879209852515627
0.13000000000000012,-0.99,0.782305774937886
0.14000000000000012,-0.99,0.7736031611320418
0.15000000000000013,-0.99,0.7618474890748748
0.15999999999999992,-0.99,0.7470851530333391
0.16999999999999993,-0.99,0.729374413203522
0.17999999999999994,-0.99,0.7087851657842634
0.18999999999999995,-0.99,0.6853986671287953
0.19999999999999996,-0.99,0.6593072130630352
0.20999999999999996,-0.99,0.6306137746361297
0.21999999999999997,-0.99,0.5994315917407644
0.22999999999999998,-0.99,0.5658837262070429
0.24,-0.99,0.5301025761336661
0.25,-0.99,0.492229353373119
0.26,-0.99,0.45241352623300957
0.27,-0.99,0.4108122295929383
0.28,-0.99,0.3675896447649185
0.29000000000000004,-0.99,0.32291635154474596
0.30000000000000004,-0.99,0.2769686550114743
0.31000000000000005,-0.99,0.2299278897318148
0.32000000000000006,-0.99,0.18197970411544476
0.33000000000000007,-0.99,0.1333133277455495
0.3400000000000001,-0.99,0.08412082457610867
0.3500000000000001,-0.99,0.03459633494321497
0.3600000000000001,-0.99,-0.015064690618137564
0.3700000000000001,-0.99,-0.06466626272802278
0.3800000000000001,-0.99,-0.11401262664212582
0.3900000000000001,-0.99,-0.16290903480628677
0.40000000000000013,-0.99,-0.2111625154361258
0.4099999999999999,-0.99,-0.25858263408851545
0.41999999999999993,-0.99,-0.30498224521932593
0.42999999999999994,-0.99,-0.3501782307613899
0.43999999999999995,-0.99,-0.39399222280785484
0.44999999999999996,-0.99,-0.4362513075488219
0.45999999999999996,-0.99,-0.47678870768315806
0.47,-0.99,-0.51544444061231
0.48,-0.99,-0.5520659498185296
0.49,-0.99,-0.5865087069357575
0.5,-0.99,-0.6186367821370504
0.51,-0.99,-0.6483233805875097
0.52,-0.99,-0.6754513428455691
0.53,-0.99,-0.699913607237782
0.54,-0.99,-0.7216136323823388
0.55,-0.99,-0.740465778193792
0.56,-0.99,-0.7563956438653496
0.5700000000000001,-0.99,-0.7693403614948706
0.5800000000000001,-0.99,-0.779248844195749
0.5900000000000001,-0.99,-0.7860819877135201
0.6000000000000001,-0.99,-0.7898128247524854
0.6100000000000001,-0.99,-0.7904266314033092
0.6200000000000001,-0.99,-0.7879209852515627
0.6300000000000001,-0.99,-0.782305774937886
0.6400000000000001,-0.99,-0.7736031611320413
0.6500000000000001,-0.99,-0.7618474890748744
0.6600000000000001,-0.99,-0.7470851530333393
0.6699999999999999,-0.99,-0.729374413203522
0.6799999999999999,-0.99,-0.7087851657842636
0.69,-0.99,-0.6853986671287952
0.7,-0.99,-0.6593072130630351
0.71,-0.99,-0.6306137746361296
0.72,-0.99,-0.5994315917407644
0.73,-0.99,-0.5658837262070431
0.74,-0.99,-0.5301025761336661
0.75,-0.99,-0.49222935337311924
0.76,-0.99,-0.4524135262330098
0.77,-0.99,-0.41081222959293817
0.78,-0.99,-0.3675896447649186
0.79,-0.99,-0.3229163515447462
0.8,-0.99,-0.27696865501147466
0.81,-0.99,-0.22992788973181522
0.8200000000000001,-0.99,-0.18197970411544495
0.8300000000000001,-0.99,-0.13331332774554971
0.8400000000000001,-0.99,-0.08412082457610887
0.8500000000000001,-0.99,-0.03459633494321518
0.8600000000000001,-0.99,0.015064690618137408
0.8700000000000001,-0.99,0.06466626272802267
0.8800000000000001,-0.99,0.11401262664212565
0.8900000000000001,-0.99,0.1629090348062868
0.9000000000000001,-0.99,0.2111625154361258
0.9100000000000001,-0.99,0.25858263408851523
0.9199999999999999,-0.99,0.3049822452193257
0.9299999999999999,-0.99,0.3501782307613898
0.94,-0.99,0.39399222280785456
0.95,-0.99,0.43625130754882185
0.96,-0.99,0.47678870768315806
0.97,-0.99,0.5154444406123098
0.98,-0.99,0.55206594981853
0.99,-0.99,0.5865087069357575
1.0,-0.99,0.61863678213705

-1.0,-0.98,0.6448898555308198
-0.99,-0.98,0.6754513428455686
-0.98,-0.98,0.7033471322944718
-0.97,-0.98,0.7284671319409478
-0.96,-0.98,0.7507122046226286
-0.95,-0.98,0.7699945592004467
-0.94,-0.98,0.7862380970301527
-0.9299999999999999,-0.98,0.7993787122889002
-0.92,-0.98,0.8093645449716387
-0.91,-0.98,0.8161561855588619
-0.9,-0.98,0.819726830547978
-0.89,-0.98,0.8200623882344874
-0.88,-0.98,0.8171615343255032
-0.87,-0.98,0.8110357171661299
-0.86,-0.98,0.8017091125580755
-0.85,-0.98,0.7892185283488091
-0.84,-0.98,0.7736132591677978
-0.83,-0.98,0.7549548918831307
-0.8200000000000001,-0.98,0.733317062546283
-0.81,-0.98,0.7087851657842634
-0.8,-0.98,0.681456017786034
-0.79,-0.98,0.6514374742132438
-0.78,-0.98,0.6188480045432062
-0.77,-0.98,0.5838162245239966
-0.76,-0.98,0.5464803885868533
-0.75,-0.98,0.5069878442190985
-0.74,-0.98,0.4654944504509252
-0.73,-0.98,0.4221639627510075
-0.72,-0.98,0.37716738675848005
-0.71,-0.98,0.3306823034018057
-0.7,-0.98,0.28289216806797823
-0.69,-0.98,0.23398558658792437
-0.6799999999999999,-0.98,0.18415557089545417
-0.6699999999999999,-0.98,0.13359877729733716
-0.6599999999999999,-0.98,0.08251473036070303
-0.6499999999999999,-0.98,0.031105035480729792
-0.64,-0.98,-0.020427416763746997
-0.63,-0.98,-0.07187925132665622
-0.62,-0.98,-0.12304741132308539
-0.61,-0.98,-0.1737299594020374
-0.6,-0.98,-0.22372687470089825
-0.59,-0.98,-0.2728408422364012
-0.5800000000000001,-0.98,-0.3208780316167209
-0.5700000000000001,-0.98,-0.36764886200147784
-0.56,-0.98,-0.41296875029070307
-0.55,-0.98,-0.45665883959000664
-0.54,-0.98,-0.49854670507702725
-0.53,-0.98,-0.5384670344834332
-0.52,-0.98,-0.5762622805069209
-0.51,-0.98,-0.6117832825784413
-0.5,-0.98,-0.6448898555308202
-0.49,-0.98,-0.675451342845569
-0.48,-0.98,-0.7033471322944718
-0.47,-0.98,-0.7284671319409479
-0.45999999999999996,-0.98,-0.7507122046226287
-0.44999999999999996,-0.98,-0.7699945592004465
-0.43999999999999995,-0.98,-0.7862380970301531
-0.42999999999999994,-0.98,-0.7993787122889003
-0.42000000000000004,-0.98,-0.8093645449716389
-0.41000000000000003,-0.98,-0.8161561855588622
-0.4,-0.98,-0.8197268305479783
-0.39,-0.98,-0.8200623882344875
-0.38,-0.98,-0.8171615343255031
-0.37,-0.98,-0.8110357171661298
-0.36,-0.98,-0.8017091125580758
-0.35,-0.98,-0.7892185283488088
-0.33999999999999997,-0.98,-0.7736132591677978
-0.32999999999999996,-0.98,-0.7549548918831308
-0.31999999999999995,-0.98,-0.7333170625462828
-0.30999999999999994,-0.98,-0.7087851657842636
-0.29999999999999993,-0.98,-0.681456017786034
-0.29000000000000004,-0.98,-0.6514374742132438
-0.28,-0.98,-0.6188480045432061
-0.27,-0.98,-0.5838162245239968
-0.26,-0.98,-0.5464803885868534
-0.25,-0.98,-0.5069878442190988
-0.24,-0.98,-0.4654944504509253
-0.22999999999999998,-0.98,-0.42216396275100765
-0.21999999999999997,-0.98,-0.37716738675848016
-0.20999999999999996,-0.98,-0.3306823034018057
-0.19999999999999996,-0.98,-0.28289216806797823
-0.18999999999999995,-0.98,-0.23398558658792418
-0.17999999999999994,-0.98,-0.18415557089545398
-0.16999999999999993,-0.98,-0.133598777297337
-0.16000000000000003,-0.98,-0.082514730360703
-0.15000000000000002,-0.98,-0.03110503548072974
-0.14,-0.98,0.02042741676374703
-0.13,-0.98,0.07187925132665626
-0.12,-0.98,0.12304741132308544
-0.10999999999999999,-0.98,0.17372995940203745
-0.09999999999999998,-0.98,0.2237268747008983
-0.08999999999999997,-0.98,0.27284084223640104
-0.07999999999999996,-0.98,0.3208780316167209
-0.06999999999999995,-0.98,0.3676488620014779
-0.05999999999999994,-0.98,0.4129687502907031
-0.04999999999999993,-0.98,0.4566588395900065
-0.040000000000000036,-0.98,0.4985467050770273
-0.030000000000000027,-0.98,0.5384670344834332
-0.020000000000000018,-0.98,0.5762622805069209
-0.010000000000000009,-0.98,0.6117832825784411
0.0,-0.98,0.6448898555308202
0.010000000000000009,-0.98,0.675451342845569
0.020000000000000018,-0.98,0.7033471322944715
0.030000000000000027,-0.98,0.728467131940948
0.040000000000000036,-0.98,0.7507122046226287
0.050000000000000044,-0.98,0.7699945592004465
0.06000000000000005,-0.98,0.786238097030153
0.07000000000000006,-0.98,0.7993787122889001
0.08000000000000007,-0.98,0.8093645449716388
0.09000000000000008,-0.98,0.8161561855588619
0.10000000000000009,-0.98,0.819726830547978
0.1100000000000001,-0.98,0.8200623882344873
0.1200000000000001,-0.98,0.817161534325503
0.13000000000000012,-0.98,0.8110357171661301
0.14000000000000012,-0.98,0.8017091125580762
0.15000000000000013,-0.98,0.7892185283488085
0.15999999999999992,-0.98,0.7736132591677977
0.16999999999999993,-0.98,0.7549548918831306
0.17999999999999994,-0.98,0.7333170625462833
0.18999999999999995,-0.98,0.7087851657842634
0.19999999999999996,-0.98,0.681456017786034
0.20999999999999996,-0.98,0.6514374742132438
0.21999999999999997,-0.98,0.6188480045432061
0.22999999999999998,-0.98,0.5838162245239971
0.24,-0.98,0.5464803885868532
0.25,-0.98,0.5069878442190987
0.26,-0.98,0.4654944504509254
0.27,-0.98,0.4221639627510074
0.28,-0.98,0.3771673867584801
0.29000000000000004,-0.98,0.33068230340180527
0.30000000000000004,-0.98,0.2828921680679779
0.31000000000000005,-0.98,0.23398558658792412
0.32000000000000006,-0.98,0.18415557089545395
0.33000000000000007,-0.98,0.13359877729733702
0.3400000000000001,-0.98,0.0825147303607029
0.3500000000000001,-0.98,0.031105035480729695
0.3600000000000001,-0.98,-0.02042741676374699
0.3700000000000001,-0.98,-0.07187925132665626
0.3800000000000001,-0.98,-0.12304741132308544
0.3900000000000001,-0.98,-0.17372995940203734
0.40000000000000013,-0.98,-0.22372687470089825
0.4099999999999999,-0.98,-0.27284084223640126
0.41999999999999993,-0.98,-0.320878031616721
0.42999999999999994,-0.98,-0.36764886200147817
0.43999999999999995,-0.98,-0.41296875029070335
0.44999999999999996,-0.98,-0.45665883959000686
0.45999999999999996,-0.98,-0.4985467050770277
0.47,-0.98,-0.5384670344834332
0.48,-0.98,-0.5762622805069211
0.49,-0.98,-0.6117832825784415
0.5,-0.98,-0.64488985553082
0.51,-0.98,-0.6754513428455691
0.52,-0.98,-0.7033471322944715
0.53,-0.98,-0.7284671319409477
0.54,-0.98,-0.7507122046226287
0.55,-0.98,-0.7699945592004462
0.56,-0.98,-0.7862380970301528
0.5700000000000001,-0.98,-0.7993787122889002
0.5800000000000001,-0.98,-0.8093645449716387
0.5900000000000001,-0.98,-0.816156185558862
0.6000000000000001,-0.98,-0.8197268305479779
0.6100000000000001,-0.98,-0.8200623882344872
0.6200000000000001,-0.98,-0.817161534325503
0.6300000000000001,-0.98,-0.8110357171661297
0.6400000000000001,-0.98,-0.8017091125580756
0.6500000000000001,-0.98,-0.7892185283488089
0.6600000000000001,-0.98,-0.773613259167798
0.6699999999999999,-0.98,-0.7549548918831309
0.6799999999999999,-0.98,-0.7333170625462833
0.69,-0.98,-0.7087851657842636
0.7,-0.98,-0.681456017786034
0.71,-0.98,-0.6514374742132438
0.72,-0.98,-0.6188480045432061
0.73,-0.98,-0.5838162245239971
0.74,-0.98,-0.5464803885868532
0.75,-0.98,-0.5069878442190987
0.76,-0.98,-0.4654944504509252
0.77,-0.98,-0.42216396275100754
0.78,-0.98,-0.3771673867584803
0.79,-0.98,-0.3306823034018057
0.8,-0.98,-0.2828921680679783
0.81,-0.98,-0.2339855865879243
0.8200000000000001,-0.98,-0.1841555708954542
0.8300000000000001,-0.98,-0.13359877729733724
0.8400000000000001,-0.98,-0.0825147303607032
0.8500000000000001,-0.98,-0.031105035480729896
0.8600000000000001,-0.98,0.020427416763746875
0.8700000000000001,-0.98,0.07187925132665607
0.8800000000000001,-0.98,0.12304741132308541
0.8900000000000001,-0.98,0.17372995940203734
0.9000000000000001,-0.98,0.22372687470089805
0.9100000000000001,-0.98,0.272840842236401
0.9199999999999999,-0.98,0.3208780316167209
0.9299999999999999,-0.98,0.36764886200147784
0.94,-0.98,0.41296875029070323
0.95,-0.98,0.45665883959000675
0.96,-0.98,0.4985467050770276
0.97,-0.98,0.5384670344834335
0.98,-0.98,0.5762622805069211
0.99,-0.98,0.6117832825784413
1.0,-0.98,0.6448898555308198

-1.0,-0.97,0.6685978432869598
-0.99,-0.97,0.6999136072377821
-0.98,-0.97,0.7284671319409479
-0.97,-0.97,0.7541457296793184
-0.96,-0.97,0.7768480587590556
-0.95,-0.97,0.7964845234589895
-0.94,-0.97,0.8129776276239968
-0.9299999999999999,-0.97,0.8262622805069211
-0.92,-0.97,0.8362860536520131
-0.91,-0.97,0.8430093878060965
-0.9,-0.97,0.8464057490408641
-0.89,-0.97,0.8464617334701718
-0.88,-0.97,0.8431771201490545
-0.87,-0.97,0.8365648719456928
-0.86,-0.97,0.8266510843828977
-0.85,-0.97,0.8134748826509991
-0.84,-0.97,0.7970882671986003
-0.83,-0.97,0.7775559085105587
-0.8200000000000001,-0.97,0.7549548918831306
-0.81,-0.97,0.729374413203522
-0.8,-0.97,0.7009154269344722
-0.79,-0.97,0.6696902476931107
-0.78,-0.97,0.635822106996476
-0.77,-0.97,0.5994446669230162
-0.76,-0.97,0.5607014926094295
-0.75,-0.97,0.5197454856646593
-0.74,-0.97,0.47673828073709645
-0.73,-0.97,0.43184960761646707
-0.72,-0.97,0.38525662138789474
-0.71,-0.97,0.3371432032817124
-0.7,-0.97,0.28769923497825545
-0.69,-0.97,0.2371198492316173
-0.6799999999999999,-0.97,0.18560465976981655
-0.6699999999999999,-0.97,0.13335697351060755
-0.6599999999999999,-0.97,0.0805829882019582
-0.6499999999999999,-0.97,0.02749097865374102
-0.64,-0.97,-0.02570952522778891
-0.63,-0.97,-0.0788085653588096
-0.62,-0.97,-0.13159658408656782
-0.61,-0.97,-0.18386525121769684
-0.6,-0.97,-0.23540828620231272
-0.59,-0.97,-0.2860222722291038
-0.5800000000000001,-0.97,-0.33550745901855317
-0.5700000000000001,-0.97,-0.3836685511460342
-0.56,-0.97,-0.4303154787836299
-0.55,-0.97,-0.4752641478189086
-0.54,-0.97,-0.518337166390282
-0.53,-0.97,-0.5593645449716385
-0.52,-0.97,-0.5981843672433449
-0.51,-0.97,-0.6346434291019836
-0.5,-0.97,-0.6685978432869599
-0.49,-0.97,-0.6999136072377823
-0.48,-0.97,-0.7284671319409478
-0.47,-0.97,-0.7541457296793181
-0.45999999999999996,-0.97,-0.7768480587590556
-0.44999999999999996,-0.97,-0.7964845234589896
-0.43999999999999995,-0.97,-0.8129776276239968
-0.42999999999999994,-0.97,-0.826262280506921
-0.42000000000000004,-0.97,-0.8362860536520133
-0.41000000000000003,-0.97,-0.8430093878060969
-0.4,-0.97,-0.8464057490408641
-0.39,-0.97,-0.846461733470172
-0.38,-0.97,-0.8431771201490544
-0.37,-0.97,-0.8365648719456928
-0.36,-0.97,-0.8266510843828974
-0.35,-0.97,-0.8134748826509992
-0.33999999999999997,-0.97,-0.7970882671986002
-0.32999999999999996,-0.97,-0.7775559085105586
-0.31999999999999995,-0.97,-0.7549548918831308
-0.30999999999999994,-0.97,-0.7293744132035218
-0.29999999999999993,-0.97,-0.700915426934472
-0.29000000000000004,-0.97,-0.6696902476931106
-0.28,-0.97,-0.6358221069964762
-0.27,-0.97,-0.5994446669230165
-0.26,-0.97,-0.5607014926094298
-0.25,-0.97,-0.5197454856646595
-0.24,-0.97,-0.4767382807370967
-0.22999999999999998,-0.97,-0.43184960761646707
-0.21999999999999997,-0.97,-0.38525662138789474
-0.20999999999999996,-0.97,-0.33714320328171243
-0.19999999999999996,-0.97,-0.28769923497825534
-0.18999999999999995,-0.97,-0.23711984923161714
-0.17999999999999994,-0.97,-0.18560465976981638
-0.16999999999999993,-0.97,-0.1333569735106075
-0.16000000000000003,-0.97,-0.08058298820195814
-0.15000000000000002,-0.97,-0.02749097865374097
-0.14,-0.97,0.02570952522778899
-0.13,-0.97,0.07880856535880966
-0.12,-0.97,0.1315965840865679
-0.10999999999999999,-0.97,0.18386525121769692
-0.09999999999999998,-0.97,0.23540828620231266
-0.08999999999999997,-0.97,0.28602227222910376
-0.07999999999999996,-0.97,0.3355074590185533
-0.06999999999999995,-0.97,0.38366855114603426
-0.05999999999999994,-0.97,0.43031547878362986
-0.04999999999999993,-0.97,0.4752641478189088
-0.040000000000000036,-0.97,0.518337166390282
-0.030000000000000027,-0.97,0.5593645449716386
-0.020000000000000018,-0.97,0.5981843672433446
-0.010000000000000009,-0.97,0.6346434291019835
0.0,-0.97,0.6685978432869599
0.010000000000000009,-0.97,0.699913607237782
0.020000000000000018,-0.97,0.7284671319409479
0.030000000000000027,-0.97,0.7541457296793183
0.040000000000000036,-0.97,0.7768480587590554
0.050000000000000044,-0.97,0.7964845234589893
0.06000000000000005,-0.97,0.8129776276239964
0.07000000000000006,-0.97,0.826262280506921
0.08000000000000007,-0.97,0.8362860536520134
0.09000000000000008,-0.97,0.8430093878060967
0.10000000000000009,-0.97,0.8464057490408641
0.1100000000000001,-0.97,0.846461733470172
0.1200000000000001,-0.97,0.8431771201490545
0.13000000000000012,-0.97,0.8365648719456931
0.14000000000000012,-0.97,0.826651084382897
0.15000000000000013,-0.97,0.813474882650999
0.15999999999999992,-0.97,0.7970882671986002
0.16999999999999993,-0.97,0.777555908510559
0.17999999999999994,-0.97,0.7549548918831308
0.18999999999999995,-0.97,0.7293744132035218
0.19999999999999996,-0.97,0.7009154269344721
0.20999999999999996,-0.97,0.6696902476931106
0.21999999999999997,-0.97,0.6358221069964765
0.22999999999999998,-0.97,0.5994446669230163
0.24,-0.97,0.5607014926094297
0.25,-0.97,0.5197454856646596
0.26,-0.97,0.47673828073709645
0.27,-0.97,0.4318496076164671
0.28,-0.97,0.3852566213878943
0.29000000000000004,-0.97,0.3371432032817121
0.30000000000000004,-0.97,0.2876992349782552
0.31000000000000005,-0.97,0.23711984923161708
0.32000000000000006,-0.97,0.18560465976981638
0.33000000000000007,-0.97,0.13335697351060732
0.3400000000000001,-0.97,0.08058298820195806
0.3500000000000001,-0.97,0.027490978653741
0.3600000000000001,-0.97,-0.02570952522778899
0.3700000000000001,-0.97,-0.07880856535880963
0.3800000000000001,-0.97,-0.13159658408656782
0.3900000000000001,-0.97,-0.1838652512176969
0.40000000000000013,-0.97,-0.2354082862023128
0.4099999999999999,-0.97,-0.28602227222910387
0.41999999999999993,-0.97,-0.33550745901855344
0.42999999999999994,-0.97,-0.38366855114603443
0.43999999999999995,-0.97,-0.4303154787836302
0.44999999999999996,-0.97,-0.47526414781890897
0.45999999999999996,-0.97,-0.518337166390282
0.47,-0.97,-0.5593645449716389
0.48,-0.97,-0.598184367243345
0.49,-0.97,-0.6346434291019836
0.5,-0.97,-0.6685978432869601
0.51,-0.97,-0.699913607237782
0.52,-0.97,-0.7284671319409477
0.53,-0.97,-0.7541457296793183
0.54,-0.97,-0.7768480587590554
0.55,-0.97,-0.7964845234589892
0.56,-0.97,-0.8129776276239966
0.5700000000000001,-0.97,-0.826262280506921
0.5800000000000001,-0.97,-0.8362860536520131
0.5900000000000001,-0.97,-0.8430093878060964
0.6000000000000001,-0.97,-0.8464057490408639
0.6100000000000001,-0.97,-0.8464617334701717
0.6200000000000001,-0.97,-0.8431771201490543
0.6300000000000001,-0.97,-0.8365648719456927
0.6400000000000001,-0.97,-0.8266510843828971
0.6500000000000001,-0.97,-0.8134748826509994
0.6600000000000001,-0.97,-0.7970882671986004
0.6699999999999999,-0.97,-0.7775559085105589
0.6799999999999999,-0.97,-0.7549548918831307