TITLE = "Solution" 
VARIABLES = "x", "y", "sol" 
ZONE STRANDID=1, SOLUTIONTIME= 1.0000000000000007, I= 201, J =201, DATAPACKING=POINT 
-1.0,-1.0,-0.16317487087115626
-0.99,-1.0,-0.16285288253724578
-0.98,-1.0,-0.1618881882763658
-0.97,-1.0,-0.160284595296037
-0.96,-1.0,-0.1580484322451407
-0.95,-1.0,-0.15518852423763335
-0.94,-1.0,-0.15171615802385285
-0.9299999999999999,-1.0,-0.14764503744687169
-0.92,-1.0,-0.142991229359689
-0.91,-1.0,-0.13777310021670247
-0.9,-1.0,-0.13201124358970295
-0.89,-1.0,-0.12572839889445525
-0.88,-1.0,-0.11894936164861272
-0.87,-1.0,-0.11170088561513739
-0.86,-1.0,-0.10401157721741952
-0.85,-1.0,-0.09591178264279411
-0.84,-1.0,-0.08743346808000313
-0.83,-1.0,-0.07861009356325231
-0.8200000000000001,-1.0,-0.06947648092074302
-0.81,-1.0,-0.060068676348824325
-0.8,-1.0,-0.05042380815412473
-0.79,-1.0,-0.04057994022508744
-0.78,-1.0,-0.03057592181119295
-0.77,-1.0,-0.02045123420271972
-0.76,-1.0,-0.010245834916128408
-0.75,-1.0,2.185751579730777e-16
-0.74,-1.0,0.010245834916128724
-0.73,-1.0,0.02045123420271993
-0.72,-1.0,0.030575921811193344
-0.71,-1.0,0.040579940225087714
-0.7,-1.0,0.05042380815412505
-0.69,-1.0,0.06006867634882465
-0.6799999999999999,-1.0,0.06947648092074322
-0.6699999999999999,-1.0,0.07861009356325263
-0.6599999999999999,-1.0,0.08743346808000335
-0.6499999999999999,-1.0,0.09591178264279449
-0.64,-1.0,0.10401157721741981
-0.63,-1.0,0.11170088561513755
-0.62,-1.0,0.11894936164861292
-0.61,-1.0,0.12572839889445536
-0.6,-1.0,0.1320112435897031
-0.59,-1.0,0.13777310021670258
-0.5800000000000001,-1.0,0.1429912293596891
-0.5700000000000001,-1.0,0.14764503744687166
-0.56,-1.0,0.15171615802385294
-0.55,-1.0,0.1551885242376335
-0.54,-1.0,0.15804843224514087
-0.53,-1.0,0.16028459529603695
-0.52,-1.0,0.16188818827636578
-0.51,-1.0,0.16285288253724586
-0.5,-1.0,0.16317487087115637
-0.49,-1.0,0.1628528825372459
-0.48,-1.0,0.16188818827636578
-0.47,-1.0,0.1602845952960369
-0.45999999999999996,-1.0,0.15804843224514084
-0.44999999999999996,-1.0,0.1551885242376335
-0.43999999999999995,-1.0,0.151716158023853
-0.42999999999999994,-1.0,0.14764503744687169
-0.42000000000000004,-1.0,0.14299122935968916
-0.41000000000000003,-1.0,0.13777310021670247
-0.4,-1.0,0.13201124358970295
-0.39,-1.0,0.12572839889445525
-0.38,-1.0,0.11894936164861276
-0.37,-1.0,0.11170088561513739
-0.36,-1.0,0.10401157721741953
-0.35,-1.0,0.09591178264279424
-0.33999999999999997,-1.0,0.08743346808000313
-0.32999999999999996,-1.0,0.07861009356325235
-0.31999999999999995,-1.0,0.06947648092074292
-0.30999999999999994,-1.0,0.06006867634882431
-0.29999999999999993,-1.0,0.050423808154124755
-0.29000000000000004,-1.0,0.04057994022508748
-0.28,-1.0,0.030575921811192976
-0.27,-1.0,0.020451234202719666
-0.26,-1.0,0.010245834916128405
-0.25,-1.0,-1.1102230246251565e-16
-0.24,-1.0,-0.010245834916128668
-0.22999999999999998,-1.0,-0.020451234202720037
-0.21999999999999997,-1.0,-0.030575921811193223
-0.20999999999999996,-1.0,-0.040579940225087735
-0.19999999999999996,-1.0,-0.050423808154125054
-0.18999999999999995,-1.0,-0.060068676348824616
-0.17999999999999994,-1.0,-0.06947648092074321
-0.16999999999999993,-1.0,-0.07861009356325263
-0.16000000000000003,-1.0,-0.08743346808000346
-0.15000000000000002,-1.0,-0.09591178264279443
-0.14,-1.0,-0.10401157721741977
-0.13,-1.0,-0.11170088561513761
-0.12,-1.0,-0.11894936164861297
-0.10999999999999999,-1.0,-0.12572839889445545
-0.09999999999999998,-1.0,-0.13201124358970306
-0.08999999999999997,-1.0,-0.1377731002167025
-0.07999999999999996,-1.0,-0.14299122935968916
-0.06999999999999995,-1.0,-0.1476450374468717
-0.05999999999999994,-1.0,-0.1517161580238529
-0.04999999999999993,-1.0,-0.15518852423763346
-0.040000000000000036,-1.0,-0.1580484322451408
-0.030000000000000027,-1.0,-0.16028459529603695
-0.020000000000000018,-1.0,-0.1618881882763658
-0.010000000000000009,-1.0,-0.1628528825372458
0.0,-1.0,-0.16317487087115645
0.010000000000000009,-1.0,-0.16285288253724586
0.020000000000000018,-1.0,-0.16188818827636586
0.030000000000000027,-1.0,-0.1602845952960369
0.040000000000000036,-1.0,-0.15804843224514079
0.050000000000000044,-1.0,-0.15518852423763344
0.06000000000000005,-1.0,-0.15171615802385285
0.07000000000000006,-1.0,-0.14764503744687157
0.08000000000000007,-1.0,-0.14299122935968905
0.09000000000000008,-1.0,-0.13777310021670258
0.10000000000000009,-1.0,-0.13201124358970293
0.1100000000000001,-1.0,-0.12572839889445517
0.1200000000000001,-1.0,-0.11894936164861268
0.13000000000000012,-1.0,-0.11170088561513743
0.14000000000000012,-1.0,-0.10401157721741956
0.15000000000000013,-1.0,-0.09591178264279421
0.15999999999999992,-1.0,-0.08743346808000312
0.16999999999999993,-1.0,-0.07861009356325231
0.17999999999999994,-1.0,-0.06947648092074292
0.18999999999999995,-1.0,-0.06006867634882433
0.19999999999999996,-1.0,-0.05042380815412472
0.20999999999999996,-1.0,-0.0405799402250874
0.21999999999999997,-1.0,-0.030575921811192994
0.22999999999999998,-1.0,-0.020451234202719645
0.24,-1.0,-0.010245834916128425
0.25,-1.0,1.3877787807814457e-16
0.26,-1.0,0.010245834916128734
0.27,-1.0,0.02045123420272003
0.28,-1.0,0.030575921811193348
0.29000000000000004,-1.0,0.04057994022508784
0.30000000000000004,-1.0,0.05042380815412487
0.31000000000000005,-1.0,0.0600686763488247
0.32000000000000006,-1.0,0.06947648092074324
0.33000000000000007,-1.0,0.07861009356325259
0.3400000000000001,-1.0,0.08743346808000343
0.3500000000000001,-1.0,0.09591178264279435
0.3600000000000001,-1.0,0.10401157721741976
0.3700000000000001,-1.0,0.1117008856151375
0.3800000000000001,-1.0,0.11894936164861299
0.3900000000000001,-1.0,0.12572839889445536
0.40000000000000013,-1.0,0.13201124358970315
0.4099999999999999,-1.0,0.13777310021670264
0.41999999999999993,-1.0,0.14299122935968922
0.42999999999999994,-1.0,0.14764503744687174
0.43999999999999995,-1.0,0.15171615802385294
0.44999999999999996,-1.0,0.15518852423763352
0.45999999999999996,-1.0,0.15804843224514079
0.47,-1.0,0.16028459529603695
0.48,-1.0,0.16188818827636578
0.49,-1.0,0.1628528825372459
0.5,-1.0,0.1631748708711563
0.51,-1.0,0.16285288253724586
0.52,-1.0,0.16188818827636575
0.53,-1.0,0.16028459529603686
0.54,-1.0,0.15804843224514073
0.55,-1.0,0.1551885242376334
0.56,-1.0,0.151716158023853
0.5700000000000001,-1.0,0.14764503744687169
0.5800000000000001,-1.0,0.1429912293596891
0.5900000000000001,-1.0,0.13777310021670244
0.6000000000000001,-1.0,0.1320112435897029
0.6100000000000001,-1.0,0.12572839889445517
0.6200000000000001,-1.0,0.11894936164861282
0.6300000000000001,-1.0,0.11170088561513733
0.6400000000000001,-1.0,0.10401157721741958
0.6500000000000001,-1.0,0.09591178264279421
0.6600000000000001,-1.0,0.08743346808000317
0.6699999999999999,-1.0,0.07861009356325238
0.6799999999999999,-1.0,0.06947648092074304
0.69,-1.0,0.060068676348824304
0.7,-1.0,0.050423808154124776
0.71,-1.0,0.04057994022508752
0.72,-1.0,0.03057592181119303
0.73,-1.0,0.020451234202719697
0.74,-1.0,0.01024583491612837
0.75,-1.0,-1.1796119636642288e-16
0.76,-1.0,-0.010245834916128644
0.77,-1.0,-0.02045123420271996
0.78,-1.0,-0.030575921811193313
0.79,-1.0,-0.040579940225087846
0.8,-1.0,-0.05042380815412507
0.81,-1.0,-0.060068676348824665
0.8200000000000001,-1.0,-0.06947648092074324
0.8300000000000001,-1.0,-0.07861009356325263
0.8400000000000001,-1.0,-0.08743346808000342
0.8500000000000001,-1.0,-0.09591178264279443
0.8600000000000001,-1.0,-0.10401157721741978
0.8700000000000001,-1.0,-0.11170088561513766
0.8800000000000001,-1.0,-0.11894936164861293
0.8900000000000001,-1.0,-0.12572839889445542
0.9000000000000001,-1.0,-0.13201124358970312
0.9100000000000001,-1.0,-0.1377731002167027
0.9199999999999999,-1.0,-0.14299122935968925
0.9299999999999999,-1.0,-0.1476450374468717
0.94,-1.0,-0.15171615802385302
0.95,-1.0,-0.15518852423763346
0.96,-1.0,-0.1580484322451408
0.97,-1.0,-0.16028459529603692
0.98,-1.0,-0.16188818827636578
0.99,-1.0,-0.16285288253724584
1.0,-1.0,-0.16317487087115626

-1.0,-0.99,-0.1628528825372458
-0.99,-0.99,-0.15923222152839528
-0.98,-0.99,-0.15498314368745444
-0.97,-0.99,-0.15012241818344232
-0.96,-0.99,-0.14466922807926927
-0.95,-0.99,-0.13864509462495084
-0.94,-0.99,-0.1320737923230664
-0.9299999999999999,-0.99,-0.12498125510165889
-0.92,-0.99,-0.11739547396486938
-0.91,-0.99,-0.10934638652523096
-0.9,-0.99,-0.10086575885358959
-0.89,-0.99,-0.09198706011293492
-0.88,-0.99,-0.0827453304709049
-0.87,-0.99,-0.07317704281225179
-0.86,-0.99,-0.06331995879702954
-0.85,-0.99,-0.053212979832572976
-0.84,-0.99,-0.04289599354741521
-0.83,-0.99,-0.03240971637304116
-0.8200000000000001,-0.99,-0.021795532854733672
-0.81,-0.99,-0.011095332325680352
-0.8,-0.99,-0.00035134358891272463
-0.79,-0.99,0.010394031740486732
-0.78,-0.99,0.021098386575187783
-0.77,-0.99,0.03171947571701261
-0.76,-0.99,0.04221538257943255
-0.75,-0.99,0.05254468461318506
-0.74,-0.99,0.06266661678215223
-0.73,-0.99,0.07254123244433436
-0.72,-0.99,0.0821295610029952
-0.71,-0.99,0.09139376170580471
-0.7,-0.99,0.10029727298499935
-0.69,-0.99,0.10880495674918758
-0.6799999999999999,-0.99,0.11688323705734334
-0.6699999999999999,-0.99,0.1245002326277052
-0.6599999999999999,-0.99,0.13162588265863162
-0.6499999999999999,-0.99,0.13823206546485
-0.64,-0.99,0.1442927094609021
-0.63,-0.99,0.14978389605378065
-0.62,-0.99,0.1546839540386879
-0.61,-0.99,0.1589735451253809
-0.6,-0.99,0.16263574025756825
-0.59,-0.99,0.1656560864241611
-0.5800000000000001,-0.99,0.1680226636987048
-0.5700000000000001,-0.99,0.16972613228188307
-0.56,-0.99,0.17075976936143877
-0.55,-0.99,0.17111949564404283
-0.54,-0.99,0.17080389145440106
-0.53,-0.99,0.16981420233806419
-0.52,-0.99,0.16815433414582842
-0.51,-0.99,0.16583083761912693
-0.5,-0.99,0.1628528825372459
-0.49,-0.99,0.1592322215283953
-0.48,-0.99,0.15498314368745436
-0.47,-0.99,0.15012241818344244
-0.45999999999999996,-0.99,0.14466922807926938
-0.44999999999999996,-0.99,0.13864509462495095
-0.43999999999999995,-0.99,0.13207379232306643
-0.42999999999999994,-0.99,0.12498125510165904
-0.42000000000000004,-0.99,0.11739547396486942
-0.41000000000000003,-0.99,0.10934638652523097
-0.4,-0.99,0.10086575885358962
-0.39,-0.99,0.09198706011293498
-0.38,-0.99,0.0827453304709049
-0.37,-0.99,0.0731770428122518
-0.36,-0.99,0.06331995879702965
-0.35,-0.99,0.05321297983257296
-0.33999999999999997,-0.99,0.04289599354741526
-0.32999999999999996,-0.99,0.03240971637304112
-0.31999999999999995,-0.99,0.02179553285473365
-0.30999999999999994,-0.99,0.011095332325680378
-0.29999999999999993,-0.99,0.0003513435889127524
-0.29000000000000004,-0.99,-0.010394031740486673
-0.28,-0.99,-0.021098386575187828
-0.27,-0.99,-0.031719475717012634
-0.26,-0.99,-0.04221538257943244
-0.25,-0.99,-0.05254468461318499
-0.24,-0.99,-0.06266661678215238
-0.22999999999999998,-0.99,-0.07254123244433423
-0.21999999999999997,-0.99,-0.08212956100299525
-0.20999999999999996,-0.99,-0.09139376170580472
-0.19999999999999996,-0.99,-0.10029727298499934
-0.18999999999999995,-0.99,-0.1088049567491876
-0.17999999999999994,-0.99,-0.11688323705734333
-0.16999999999999993,-0.99,-0.12450023262770529
-0.16000000000000003,-0.99,-0.13162588265863157
-0.15000000000000002,-0.99,-0.13823206546484998
-0.14,-0.99,-0.14429270946090222
-0.13,-0.99,-0.14978389605378073
-0.12,-0.99,-0.154683954038688
-0.10999999999999999,-0.99,-0.15897354512538087
-0.09999999999999998,-0.99,-0.16263574025756813
-0.08999999999999997,-0.99,-0.16565608642416121
-0.07999999999999996,-0.99,-0.16802266369870483
-0.06999999999999995,-0.99,-0.1697261322818831
-0.05999999999999994,-0.99,-0.17075976936143872
-0.04999999999999993,-0.99,-0.17111949564404277
-0.040000000000000036,-0.99,-0.17080389145440106
-0.030000000000000027,-0.99,-0.1698142023380642
-0.020000000000000018,-0.99,-0.16815433414582837
-0.010000000000000009,-0.99,-0.16583083761912695
0.0,-0.99,-0.16285288253724586
0.010000000000000009,-0.99,-0.15923222152839536
0.020000000000000018,-0.99,-0.1549831436874544
0.030000000000000027,-0.99,-0.15012241818344235
0.040000000000000036,-0.99,-0.14466922807926935
0.050000000000000044,-0.99,-0.13864509462495084
0.06000000000000005,-0.99,-0.13207379232306632
0.07000000000000006,-0.99,-0.12498125510165894
0.08000000000000007,-0.99,-0.11739547396486945
0.09000000000000008,-0.99,-0.10934638652523095
0.10000000000000009,-0.99,-0.10086575885358953
0.1100000000000001,-0.99,-0.0919870601129349
0.1200000000000001,-0.99,-0.08274533047090492
0.13000000000000012,-0.99,-0.07317704281225183
0.14000000000000012,-0.99,-0.06331995879702963
0.15000000000000013,-0.99,-0.053212979832572956
0.15999999999999992,-0.99,-0.04289599354741521
0.16999999999999993,-0.99,-0.03240971637304112
0.17999999999999994,-0.99,-0.021795532854733665
0.18999999999999995,-0.99,-0.011095332325680371
0.19999999999999996,-0.99,-0.0003513435889126969
0.20999999999999996,-0.99,0.010394031740486663
0.21999999999999997,-0.99,0.021098386575187845
0.22999999999999998,-0.99,0.0317194757170126
0.24,-0.99,0.04221538257943247
0.25,-0.99,0.05254468461318507
0.26,-0.99,0.06266661678215237
0.27,-0.99,0.0725412324443344
0.28,-0.99,0.08212956100299533
0.29000000000000004,-0.99,0.09139376170580452
0.30000000000000004,-0.99,0.10029727298499941
0.31000000000000005,-0.99,0.10880495674918761
0.32000000000000006,-0.99,0.11688323705734324
0.33000000000000007,-0.99,0.12450023262770522
0.3400000000000001,-0.99,0.13162588265863148
0.3500000000000001,-0.99,0.13823206546484995
0.3600000000000001,-0.99,0.14429270946090209
0.3700000000000001,-0.99,0.14978389605378073
0.3800000000000001,-0.99,0.1546839540386879
0.3900000000000001,-0.99,0.15897354512538092
0.40000000000000013,-0.99,0.1626357402575683
0.4099999999999999,-0.99,0.1656560864241612
0.41999999999999993,-0.99,0.16802266369870483
0.42999999999999994,-0.99,0.16972613228188307
0.43999999999999995,-0.99,0.1707597693614388
0.44999999999999996,-0.99,0.17111949564404277
0.45999999999999996,-0.99,0.17080389145440103
0.47,-0.99,0.1698142023380642
0.48,-0.99,0.16815433414582845
0.49,-0.99,0.16583083761912684
0.5,-0.99,0.16285288253724586
0.51,-0.99,0.15923222152839522
0.52,-0.99,0.1549831436874543
0.53,-0.99,0.15012241818344235
0.54,-0.99,0.14466922807926927
0.55,-0.99,0.13864509462495095
0.56,-0.99,0.1320737923230664
0.5700000000000001,-0.99,0.12498125510165893
0.5800000000000001,-0.99,0.11739547396486935
0.5900000000000001,-0.99,0.10934638652523092
0.6000000000000001,-0.99,0.10086575885358953
0.6100000000000001,-0.99,0.091987060112935
0.6200000000000001,-0.99,0.08274533047090485
0.6300000000000001,-0.99,0.07317704281225185
0.6400000000000001,-0.99,0.06331995879702962
0.6500000000000001,-0.99,0.05321297983257299
0.6600000000000001,-0.99,0.042895993547415266
0.6699999999999999,-0.99,0.0324097163730412
0.6799999999999999,-0.99,0.021795532854733644
0.69,-0.99,0.011095332325680388
0.7,-0.99,0.0003513435889128391
0.71,-0.99,-0.010394031740486635
0.72,-0.99,-0.021098386575187793
0.73,-0.99,-0.03171947571701267
0.74,-0.99,-0.04221538257943244
0.75,-0.99,-0.05254468461318498
0.76,-0.99,-0.0626666167821523
0.77,-0.99,-0.07254123244433433
0.78,-0.99,-0.08212956100299536
0.79,-0.99,-0.09139376170580474
0.8,-0.99,-0.10029727298499938
0.81,-0.99,-0.10880495674918765
0.8200000000000001,-0.99,-0.11688323705734331
0.8300000000000001,-0.99,-0.12450023262770524
0.8400000000000001,-0.99,-0.13162588265863157
0.8500000000000001,-0.99,-0.13823206546484998
0.8600000000000001,-0.99,-0.14429270946090228
0.8700000000000001,-0.99,-0.14978389605378067
0.8800000000000001,-0.99,-0.15468395403868795
0.8900000000000001,-0.99,-0.15897354512538098
0.9000000000000001,-0.99,-0.16263574025756836
0.9100000000000001,-0.99,-0.1656560864241613
0.9199999999999999,-0.99,-0.16802266369870486
0.9299999999999999,-0.99,-0.16972613228188316
0.94,-0.99,-0.17075976936143877
0.95,-0.99,-0.1711194956440428
0.96,-0.99,-0.17080389145440103
0.97,-0.99,-0.1698142023380642
0.98,-0.99,-0.16815433414582834
0.99,-0.99,-0.1658308376191268
1.0,-0.99,-0.1628528825372458

-1.0,-0.98,-0.16188818827636575
-0.99,-0.98,-0.15498314368745444
-0.98,-0.98,-0.14746645143547182
-0.97,-0.98,-0.1393677764706867
-0.96,-0.98,-0.13071908056325246
-0.95,-0.98,-0.12155449616470232
-0.94,-0.98,-0.1119101917027569
-0.9299999999999999,-0.98,-0.1018242288410641
-0.92,-0.98,-0.09133641226720082
-0.91,-0.98,-0.0804881326017565
-0.9,-0.98,-0.06932220304846295
-0.89,-0.98,-0.057882690430039255
-0.88,-0.98,-0.046214741276573996
-0.87,-0.98,-0.03436440365279704
-0.86,-0.98,-0.022378445427405233
-0.85,-0.98,-0.010304169701650639
-0.84,-0.98,0.0018107718743890291
-0.83,-0.98,0.013918567161103443
-0.8200000000000001,-0.98,0.025971432222021466
-0.81,-0.98,0.037921799905177946
-0.8,-0.98,0.049722507568931096
-0.79,-0.98,0.06132698321136251
-0.78,-0.98,0.07268942926869226
-0.77,-0.98,0.08376500335734008
-0.76,-0.98,0.0945099952463261
-0.75,-0.98,0.10488199936158453
-0.74,-0.98,0.11484008214139071
-0.73,-0.98,0.12434494358242748
-0.72,-0.98,0.13335907233894573
-0.71,-0.98,0.14184689376290688
-0.7,-0.98,0.14977491030086726
-0.69,-0.98,0.15711183369351805
-0.6799999999999999,-0.98,0.16382870845614955
-0.6699999999999999,-0.98,0.16989902615272234
-0.6599999999999999,-0.98,0.17529883001255184
-0.6499999999999999,-0.98,0.18000680947673925
-0.64,-0.98,0.18400438430121083
-0.63,-0.98,0.1872757778844525
-0.62,-0.98,0.18980807953054862
-0.61,-0.98,0.19159129540180073
-0.6,-0.98,0.1926183879598389
-0.59,-0.98,0.19288530373957047
-0.5800000000000001,-0.98,0.19239098934635507
-0.5700000000000001,-0.98,0.19113739561327187
-0.56,-0.98,0.18912946990207294
-0.55,-0.98,0.18637513657820637
-0.54,-0.98,0.18288526573696617
-0.53,-0.98,0.1786736303041925
-0.52,-0.98,0.17375685168082533
-0.51,-0.98,0.16815433414582845
-0.5,-0.98,0.16188818827636586
-0.49,-0.98,0.1549831436874544
-0.48,-0.98,0.1474664514354719
-0.47,-0.98,0.1393677764706868
-0.45999999999999996,-0.98,0.13071908056325257
-0.44999999999999996,-0.98,0.12155449616470235
-0.43999999999999995,-0.98,0.11191019170275707
-0.42999999999999994,-0.98,0.10182422884106417
-0.42000000000000004,-0.98,0.09133641226720085
-0.41000000000000003,-0.98,0.08048813260175652
-0.4,-0.98,0.06932220304846298
-0.39,-0.98,0.05788269043003926
-0.38,-0.98,0.04621474127657401
-0.37,-0.98,0.034364403652797144
-0.36,-0.98,0.022378445427405233
-0.35,-0.98,0.010304169701650677
-0.33999999999999997,-0.98,-0.001810771874389036
-0.32999999999999996,-0.98,-0.013918567161103464
-0.31999999999999995,-0.98,-0.025971432222021473
-0.30999999999999994,-0.98,-0.03792179990517792
-0.29999999999999993,-0.98,-0.04972250756893101
-0.29000000000000004,-0.98,-0.06132698321136255
-0.28,-0.98,-0.0726894292686923
-0.27,-0.98,-0.08376500335733991
-0.26,-0.98,-0.09450999524632601
-0.25,-0.98,-0.10488199936158475
-0.24,-0.98,-0.11484008214139056
-0.22999999999999998,-0.98,-0.12434494358242759
-0.21999999999999997,-0.98,-0.13335907233894578
-0.20999999999999996,-0.98,-0.14184689376290688
-0.19999999999999996,-0.98,-0.14977491030086726
-0.18999999999999995,-0.98,-0.15711183369351803
-0.17999999999999994,-0.98,-0.16382870845614966
-0.16999999999999993,-0.98,-0.16989902615272223
-0.16000000000000003,-0.98,-0.1752988300125518
-0.15000000000000002,-0.98,-0.18000680947673933
-0.14,-0.98,-0.18400438430121094
-0.13,-0.98,-0.18727577788445257
-0.12,-0.98,-0.18980807953054868
-0.10999999999999999,-0.98,-0.19159129540180067
-0.09999999999999998,-0.98,-0.19261838795983904
-0.08999999999999997,-0.98,-0.19288530373957047
-0.07999999999999996,-0.98,-0.19239098934635518
-0.06999999999999995,-0.98,-0.1911373956132718
-0.05999999999999994,-0.98,-0.18912946990207288
-0.04999999999999993,-0.98,-0.18637513657820629
-0.040000000000000036,-0.98,-0.18288526573696617
-0.030000000000000027,-0.98,-0.17867363030419245
-0.020000000000000018,-0.98,-0.17375685168082536
-0.010000000000000009,-0.98,-0.16815433414582845
0.0,-0.98,-0.16188818827636584
0.010000000000000009,-0.98,-0.15498314368745444
0.020000000000000018,-0.98,-0.14746645143547188
0.030000000000000027,-0.98,-0.13936777647068682
0.040000000000000036,-0.98,-0.13071908056325246
0.050000000000000044,-0.98,-0.12155449616470226
0.06000000000000005,-0.98,-0.11191019170275693
0.07000000000000006,-0.98,-0.10182422884106417
0.08000000000000007,-0.98,-0.09133641226720081
0.09000000000000008,-0.98,-0.08048813260175644
0.10000000000000009,-0.98,-0.06932220304846293
0.1100000000000001,-0.98,-0.057882690430039276
0.1200000000000001,-0.98,-0.046214741276574024
0.13000000000000012,-0.98,-0.03436440365279714
0.14000000000000012,-0.98,-0.022378445427405226
0.15000000000000013,-0.98,-0.010304169701650623
0.15999999999999992,-0.98,0.00181077187438905
0.16999999999999993,-0.98,0.013918567161103446
0.17999999999999994,-0.98,0.025971432222021446
0.18999999999999995,-0.98,0.03792179990517795
0.19999999999999996,-0.98,0.04972250756893104
0.20999999999999996,-0.98,0.06132698321136254
0.21999999999999997,-0.98,0.07268942926869225
0.22999999999999998,-0.98,0.08376500335733995
0.24,-0.98,0.09450999524632608
0.25,-0.98,0.10488199936158471
0.26,-0.98,0.11484008214139076
0.27,-0.98,0.12434494358242766
0.28,-0.98,0.1333590723389455
0.29000000000000004,-0.98,0.1418468937629069
0.30000000000000004,-0.98,0.14977491030086731
0.31000000000000005,-0.98,0.157111833693518
0.32000000000000006,-0.98,0.16382870845614955
0.33000000000000007,-0.98,0.16989902615272215
0.3400000000000001,-0.98,0.17529883001255178
0.3500000000000001,-0.98,0.1800068094767392
0.3600000000000001,-0.98,0.1840043843012109
0.3700000000000001,-0.98,0.1872757778844525
0.3800000000000001,-0.98,0.18980807953054873
0.3900000000000001,-0.98,0.19159129540180087
0.40000000000000013,-0.98,0.19261838795983904
0.4099999999999999,-0.98,0.19288530373957052
0.41999999999999993,-0.98,0.19239098934635507
0.42999999999999994,-0.98,0.19113739561327192
0.43999999999999995,-0.98,0.18912946990207288
0.44999999999999996,-0.98,0.1863751365782063
0.45999999999999996,-0.98,0.1828852657369662
0.47,-0.98,0.17867363030419253
0.48,-0.98,0.17375685168082522
0.49,-0.98,0.16815433414582845
0.5,-0.98,0.16188818827636572
0.51,-0.98,0.1549831436874543
0.52,-0.98,0.14746645143547182
0.53,-0.98,0.1393677764706867
0.54,-0.98,0.13071908056325254
0.55,-0.98,0.12155449616470232
0.56,-0.98,0.11191019170275693
0.5700000000000001,-0.98,0.1018242288410641
0.5800000000000001,-0.98,0.0913364122672008
0.5900000000000001,-0.98,0.08048813260175644
0.6000000000000001,-0.98,0.06932220304846298
0.6100000000000001,-0.98,0.0578826904300392
0.6200000000000001,-0.98,0.046214741276574045
0.6300000000000001,-0.98,0.03436440365279711
0.6400000000000001,-0.98,0.022378445427405247
0.6500000000000001,-0.98,0.010304169701650679
0.6600000000000001,-0.98,-0.0018107718743889736
0.6699999999999999,-0.98,-0.013918567161103464
0.6799999999999999,-0.98,-0.02597143222202145
0.69,-0.98,-0.0379217999051778
0.7,-0.98,-0.049722507568931
0.71,-0.98,-0.06132698321136251
0.72,-0.98,-0.07268942926869233
0.73,-0.98,-0.08376500335733994
0.74,-0.98,-0.09450999524632603
0.75,-0.98,-0.10488199936158464
0.76,-0.98,-0.11484008214139067
0.77,-0.98,-0.12434494358242769
0.78,-0.98,-0.13335907233894576
0.79,-0.98,-0.14184689376290688
0.8,-0.98,-0.14977491030086734
0.81,-0.98,-0.157111833693518
0.8200000000000001,-0.98,-0.1638287084561496
0.8300000000000001,-0.98,-0.16989902615272223
0.8400000000000001,-0.98,-0.1752988300125518
0.8500000000000001,-0.98,-0.1800068094767394
0.8600000000000001,-0.98,-0.18400438430121085
0.8700000000000001,-0.98,-0.18727577788445254
0.8800000000000001,-0.98,-0.1898080795305487
0.8900000000000001,-0.98,-0.19159129540180087
0.9000000000000001,-0.98,-0.19261838795983907
0.9100000000000001,-0.98,-0.1928853037395705
0.9199999999999999,-0.98,-0.19239098934635512
0.9299999999999999,-0.98,-0.19113739561327192
0.94,-0.98,-0.18912946990207297
0.95,-0.98,-0.18637513657820634
0.96,-0.98,-0.18288526573696617
0.97,-0.98,-0.17867363030419242
0.98,-0.98,-0.17375685168082516
0.99,-0.98,-0.1681543341458284
1.0,-0.98,-0.16188818827636575

-1.0,-0.97,-0.16028459529603697
-0.99,-0.97,-0.15012241818344235
-0.98,-0.97,-0.1393677764706867
-0.97,-0.97,-0.12806311381528196
-0.96,-0.97,-0.11625304455611976
-0.95,-0.97,-0.10398417764105852
-0.94,-0.97,-0.09130493268270001
-0.9299999999999999,-0.97,-0.07826534886829883
-0.92,-0.97,-0.0649168874779512
-0.91,-0.97,-0.05131222879043283
-0.9,-0.97,-0.03750506417820614
-0.89,-0.97,-0.023549884212102003
-0.88,-0.97,-0.009501763611931393
-0.87,-0.97,0.004583856108272565
-0.86,-0.97,0.018651385442581846
-0.85,-0.97,0.032645306279556786
-0.84,-0.97,0.04651039100686803
-0.83,-0.97,0.06019192046945163
-0.8200000000000001,-0.97,0.07363589992101505
-0.81,-0.97,0.08678927211663293
-0.8,-0.97,0.0996001267054532
-0.79,-0.97,0.1120179050971366
-0.78,-0.97,0.12399359999351481
-0.77,-0.97,0.13547994879800576
-0.76,-0.97,0.146431620139492
-0.75,-0.97,0.15680539277453176
-0.74,-0.97,0.16656032616185978
-0.73,-0.97,0.17565792203600206
-0.72,-0.97,0.18406227634233918
-0.71,-0.97,0.19174022093400828
-0.7,-0.97,0.19866145447142558
-0.69,-0.97,0.20479866200782923
-0.6799999999999999,-0.97,0.210127622788897
-0.6699999999999999,-0.97,0.21462730584099626
-0.6599999999999999,-0.97,0.21827995297082994
-0.6499999999999999,-0.97,0.22107114884891266
-0.64,-0.97,0.22298987790028962
-0.63,-0.97,0.22402856777797883
-0.62,-0.97,0.22418311924756534
-0.61,-0.97,0.22345292236500666
-0.6,-0.97,0.221840858883803
-0.59,-0.97,0.21935329088203287
-0.5800000000000001,-0.97,0.2160000356541375
-0.5700000000000001,-0.97,0.21179432696654493
-0.56,-0.97,0.2067527628300395
-0.55,-0.97,0.2008952399949963
-0.54,-0.97,0.1942448754279978
-0.53,-0.97,0.18682791507972732
-0.52,-0.97,0.17867363030419253
-0.51,-0.97,0.16981420233806427
-0.5,-0.97,0.16028459529603695
-0.49,-0.97,0.1501224181834424
-0.48,-0.97,0.1393677764706868
-0.47,-0.97,0.12806311381528207
-0.45999999999999996,-0.97,0.11625304455611979
-0.44999999999999996,-0.97,0.10398417764105866
-0.43999999999999995,-0.97,0.09130493268270007
-0.42999999999999994,-0.97,0.07826534886829886
-0.42000000000000004,-0.97,0.06491688747795124
-0.41000000000000003,-0.97,0.05131222879043286
-0.4,-0.97,0.03750506417820616
-0.39,-0.97,0.02354988421210202
-0.38,-0.97,0.009501763611931486
-0.37,-0.97,-0.004583856108272562
-0.36,-0.97,-0.01865138544258182
-0.35,-0.97,-0.032645306279556766
-0.33999999999999997,-0.97,-0.04651039100686805
-0.32999999999999996,-0.97,-0.06019192046945167
-0.31999999999999995,-0.97,-0.07363589992101505
-0.30999999999999994,-0.97,-0.08678927211663283
-0.29999999999999993,-0.97,-0.0996001267054532
-0.29000000000000004,-0.97,-0.11201790509713666
-0.28,-0.97,-0.12399359999351464
-0.27,-0.97,-0.13547994879800568
-0.26,-0.97,-0.14643162013949224
-0.25,-0.97,-0.1568053927745316
-0.24,-0.97,-0.16656032616185995
-0.22999999999999998,-0.97,-0.1756579220360021
-0.21999999999999997,-0.97,-0.18406227634233915
-0.20999999999999996,-0.97,-0.1917402209340083
-0.19999999999999996,-0.97,-0.19866145447142555
-0.18999999999999995,-0.97,-0.20479866200782934
-0.17999999999999994,-0.97,-0.21012762278889696
-0.16999999999999993,-0.97,-0.2146273058409962
-0.16000000000000003,-0.97,-0.21827995297083003
-0.15000000000000002,-0.97,-0.22107114884891277
-0.14,-0.97,-0.22298987790028968
-0.13,-0.97,-0.2240285677779789
-0.12,-0.97,-0.22418311924756523
-0.10999999999999999,-0.97,-0.2234529223650068
-0.09999999999999998,-0.97,-0.2218408588838029
-0.08999999999999997,-0.97,-0.219353290882033
-0.07999999999999996,-0.97,-0.2160000356541375
-0.06999999999999995,-0.97,-0.21179432696654488
-0.05999999999999994,-0.97,-0.20675276283003935
-0.04999999999999993,-0.97,-0.2008952399949963
-0.040000000000000036,-0.97,-0.1942448754279977
-0.030000000000000027,-0.97,-0.18682791507972737
-0.020000000000000018,-0.97,-0.17867363030419256
-0.010000000000000009,-0.97,-0.16981420233806424
0.0,-0.97,-0.160284595296037
0.010000000000000009,-0.97,-0.15012241818344238
0.020000000000000018,-0.97,-0.13936777647068682
0.030000000000000027,-0.97,-0.12806311381528196
0.040000000000000036,-0.97,-0.11625304455611973
0.050000000000000044,-0.97,-0.10398417764105854
0.06000000000000005,-0.97,-0.09130493268270005
0.07000000000000006,-0.97,-0.07826534886829882
0.08000000000000007,-0.97,-0.06491688747795117
0.09000000000000008,-0.97,-0.051312228790432804
0.10000000000000009,-0.97,-0.03750506417820617
0.1100000000000001,-0.97,-0.02354988421210203
0.1200000000000001,-0.97,-0.009501763611931478
0.13000000000000012,-0.97,0.004583856108272562
0.14000000000000012,-0.97,0.018651385442581887
0.15000000000000013,-0.97,0.03264530627955679
0.15999999999999992,-0.97,0.04651039100686804
0.16999999999999993,-0.97,0.06019192046945161
0.17999999999999994,-0.97,0.07363589992101507
0.18999999999999995,-0.97,0.08678927211663288
0.19999999999999996,-0.97,0.09960012670545318
0.20999999999999996,-0.97,0.11201790509713662
0.21999999999999997,-0.97,0.12399359999351467
0.22999999999999998,-0.97,0.13547994879800573
0.24,-0.97,0.14643162013949218
0.25,-0.97,0.15680539277453176
0.26,-0.97,0.16656032616185998
0.27,-0.97,0.17565792203600186
0.28,-0.97,0.18406227634233924
0.29000000000000004,-0.97,0.1917402209340084
0.30000000000000004,-0.97,0.1986614544714255
0.31000000000000005,-0.97,0.2047986620078292
0.32000000000000006,-0.97,0.21012762278889685
0.33000000000000007,-0.97,0.2146273058409961
0.3400000000000001,-0.97,0.2182799529708298
0.3500000000000001,-0.97,0.2210711488489127
0.3600000000000001,-0.97,0.22298987790028957
0.3700000000000001,-0.97,0.22402856777797892
0.3800000000000001,-0.97,0.22418311924756545
0.3900000000000001,-0.97,0.2234529223650068
0.40000000000000013,-0.97,0.22184085888380298
0.4099999999999999,-0.97,0.21935329088203295
0.41999999999999993,-0.97,0.2160000356541376
0.42999999999999994,-0.97,0.21179432696654485
0.43999999999999995,-0.97,0.2067527628300394
0.44999999999999996,-0.97,0.20089523999499634
0.45999999999999996,-0.97,0.19424487542799782
0.47,-0.97,0.18682791507972718
0.48,-0.97,0.1786736303041926
0.49,-0.97,0.1698142023380641
0.5,-0.97,0.1602845952960369
0.51,-0.97,0.15012241818344235
0.52,-0.97,0.1393677764706867
0.53,-0.97,0.12806311381528201
0.54,-0.97,0.11625304455611979
0.55,-0.97,0.10398417764105852