TITLE = "Solution" 
VARIABLES = "x", "y", "sol" 
ZONE STRANDID=1, SOLUTIONTIME= 1.6499999999999868, I= 201, J =201, DATAPACKING=POINT 
-1.0,-1.0,0.4150559893643853
-0.99,-1.0,0.3843783047999412
-0.98,-1.0,0.3521836546721951
-0.97,-1.0,0.31859909655686525
-0.96,-1.0,0.2837571733615072
-0.95,-1.0,0.24779539023921232
-0.94,-1.0,0.21085567191858887
-0.9299999999999999,-1.0,0.17308380259169623
-0.92,-1.0,0.1346288505704416
-0.91,-1.0,0.09564257998205683
-0.9,-1.0,0.056278851825421486
-0.89,-1.0,0.016693016751992834
-0.88,-1.0,-0.022958698032242108
-0.87,-1.0,-0.0625198053241751
-0.86,-1.0,-0.10183417550707578
-0.85,-1.0,-0.14074665272285947
-0.84,-1.0,-0.1791036672013752
-0.83,-1.0,-0.2167538413301291
-0.8200000000000001,-1.0,-0.253548587072564
-0.81,-1.0,-0.28934269237715426
-0.8,-1.0,-0.32399489426303424
-0.79,-1.0,-0.35736843632044546
-0.78,-1.0,-0.38933160842580816
-0.77,-1.0,-0.41975826654140724
-0.76,-1.0,-0.44852833054827806
-0.75,-1.0,-0.4755282581475768
-0.74,-1.0,-0.5006514929601635
-0.73,-1.0,-0.5237988850559465
-0.72,-1.0,-0.5448790822533626
-0.71,-1.0,-0.5638088906446975
-0.7,-1.0,-0.5805136029244393
-0.69,-1.0,-0.5949272932248763
-0.6799999999999999,-1.0,-0.6069930772953811
-0.6699999999999999,-1.0,-0.6166633369985595
-0.6599999999999999,-1.0,-0.623899908237285
-0.6499999999999999,-1.0,-0.6286742315709537
-0.64,-1.0,-0.6309674649265485
-0.63,-1.0,-0.6307705579596925
-0.62,-1.0,-0.6280842877722259
-0.61,-1.0,-0.6229192558453395
-0.6,-1.0,-0.6152958462003686
-0.59,-1.0,-0.6052441449523787
-0.5800000000000001,-1.0,-0.5928038215740099
-0.5700000000000001,-1.0,-0.5780239723381925
-0.56,-1.0,-0.5609629265575906
-0.55,-1.0,-0.5416880163854487
-0.54,-1.0,-0.5202753110863485
-0.53,-1.0,-0.49680931682557067
-0.52,-1.0,-0.4713826431618695
-0.51,-1.0,-0.44409563755985293
-0.5,-1.0,-0.4150559893643853
-0.49,-1.0,-0.38437830479994123
-0.48,-1.0,-0.3521836546721953
-0.47,-1.0,-0.318599096556865
-0.45999999999999996,-1.0,-0.2837571733615068
-0.44999999999999996,-1.0,-0.2477953902392125
-0.43999999999999995,-1.0,-0.2108556719185891
-0.42999999999999994,-1.0,-0.17308380259169615
-0.42000000000000004,-1.0,-0.1346288505704416
-0.41000000000000003,-1.0,-0.09564257998205691
-0.4,-1.0,-0.0562788518254214
-0.39,-1.0,-0.016693016751992702
-0.38,-1.0,0.02295869803224212
-0.37,-1.0,0.06251980532417514
-0.36,-1.0,0.10183417550707585
-0.35,-1.0,0.14074665272285952
-0.33999999999999997,-1.0,0.17910366720137524
-0.32999999999999996,-1.0,0.21675384133012943
-0.31999999999999995,-1.0,0.25354858707256434
-0.30999999999999994,-1.0,0.2893426923771547
-0.29999999999999993,-1.0,0.32399489426303474
-0.29000000000000004,-1.0,0.35736843632044557
-0.28,-1.0,0.38933160842580833
-0.27,-1.0,0.41975826654140747
-0.26,-1.0,0.448528330548278
-0.25,-1.0,0.4755282581475769
-0.24,-1.0,0.5006514929601639
-0.22999999999999998,-1.0,0.523798885055947
-0.21999999999999997,-1.0,0.5448790822533625
-0.20999999999999996,-1.0,0.5638088906446976
-0.19999999999999996,-1.0,0.5805136029244393
-0.18999999999999995,-1.0,0.5949272932248757
-0.17999999999999994,-1.0,0.6069930772953809
-0.16999999999999993,-1.0,0.6166633369985594
-0.16000000000000003,-1.0,0.6238999082372849
-0.15000000000000002,-1.0,0.6286742315709539
-0.14,-1.0,0.6309674649265484
-0.13,-1.0,0.6307705579596923
-0.12,-1.0,0.628084287772226
-0.10999999999999999,-1.0,0.6229192558453396
-0.09999999999999998,-1.0,0.6152958462003687
-0.08999999999999997,-1.0,0.6052441449523789
-0.07999999999999996,-1.0,0.5928038215740097
-0.06999999999999995,-1.0,0.5780239723381927
-0.05999999999999994,-1.0,0.5609629265575902
-0.04999999999999993,-1.0,0.5416880163854487
-0.040000000000000036,-1.0,0.5202753110863488
-0.030000000000000027,-1.0,0.4968093168255706
-0.020000000000000018,-1.0,0.4713826431618693
-0.010000000000000009,-1.0,0.4440956375598528
0.0,-1.0,0.41505598936438526
0.010000000000000009,-1.0,0.38437830479994123
0.020000000000000018,-1.0,0.3521836546721951
0.030000000000000027,-1.0,0.3185990965568652
0.040000000000000036,-1.0,0.28375717336150713
0.050000000000000044,-1.0,0.24779539023921238
0.06000000000000005,-1.0,0.21085567191858906
0.07000000000000006,-1.0,0.1730838025916962
0.08000000000000007,-1.0,0.13462885057044183
0.09000000000000008,-1.0,0.09564257998205705
0.10000000000000009,-1.0,0.05627885182542165
0.1100000000000001,-1.0,0.01669301675199289
0.1200000000000001,-1.0,-0.02295869803224197
0.13000000000000012,-1.0,-0.06251980532417509
0.14000000000000012,-1.0,-0.10183417550707566
0.15000000000000013,-1.0,-0.14074665272285938
0.15999999999999992,-1.0,-0.179103667201375
0.16999999999999993,-1.0,-0.21675384133012926
0.17999999999999994,-1.0,-0.25354858707256395
0.18999999999999995,-1.0,-0.2893426923771545
0.19999999999999996,-1.0,-0.3239948942630345
0.20999999999999996,-1.0,-0.3573684363204455
0.21999999999999997,-1.0,-0.3893316084258083
0.22999999999999998,-1.0,-0.41975826654140713
0.24,-1.0,-0.4485283305482777
0.25,-1.0,-0.4755282581475766
0.26,-1.0,-0.5006514929601635
0.27,-1.0,-0.5237988850559473
0.28,-1.0,-0.5448790822533627
0.29000000000000004,-1.0,-0.563808890644698
0.30000000000000004,-1.0,-0.5805136029244392
0.31000000000000005,-1.0,-0.5949272932248757
0.32000000000000006,-1.0,-0.6069930772953804
0.33000000000000007,-1.0,-0.6166633369985597
0.3400000000000001,-1.0,-0.6238999082372857
0.3500000000000001,-1.0,-0.628674231570954
0.3600000000000001,-1.0,-0.6309674649265479
0.3700000000000001,-1.0,-0.630770557959692
0.3800000000000001,-1.0,-0.6280842877722264
0.3900000000000001,-1.0,-0.6229192558453394
0.40000000000000013,-1.0,-0.6152958462003689
0.4099999999999999,-1.0,-0.6052441449523793
0.41999999999999993,-1.0,-0.5928038215740099
0.42999999999999994,-1.0,-0.5780239723381925
0.43999999999999995,-1.0,-0.5609629265575902
0.44999999999999996,-1.0,-0.541688016385449
0.45999999999999996,-1.0,-0.5202753110863484
0.47,-1.0,-0.49680931682557067
0.48,-1.0,-0.47138264316186923
0.49,-1.0,-0.4440956375598528
0.5,-1.0,-0.4150559893643855
0.51,-1.0,-0.3843783047999412
0.52,-1.0,-0.35218365467219503
0.53,-1.0,-0.31859909655686525
0.54,-1.0,-0.28375717336150685
0.55,-1.0,-0.2477953902392125
0.56,-1.0,-0.21085567191858892
0.5700000000000001,-1.0,-0.17308380259169626
0.5800000000000001,-1.0,-0.1346288505704417
0.5900000000000001,-1.0,-0.0956425799820571
0.6000000000000001,-1.0,-0.056278851825421534
0.6100000000000001,-1.0,-0.016693016751992813
0.6200000000000001,-1.0,0.022958698032242014
0.6300000000000001,-1.0,0.0625198053241751
0.6400000000000001,-1.0,0.10183417550707569
0.6500000000000001,-1.0,0.1407466527228594
0.6600000000000001,-1.0,0.17910366720137522
0.6699999999999999,-1.0,0.21675384133012923
0.6799999999999999,-1.0,0.25354858707256406
0.69,-1.0,0.2893426923771544
0.7,-1.0,0.32399489426303446
0.71,-1.0,0.35736843632044546
0.72,-1.0,0.38933160842580833
0.73,-1.0,0.41975826654140724
0.74,-1.0,0.4485283305482777
0.75,-1.0,0.4755282581475766
0.76,-1.0,0.5006514929601636
0.77,-1.0,0.523798885055947
0.78,-1.0,0.5448790822533627
0.79,-1.0,0.5638088906446983
0.8,-1.0,0.5805136029244394
0.81,-1.0,0.5949272932248761
0.8200000000000001,-1.0,0.6069930772953805
0.8300000000000001,-1.0,0.6166633369985598
0.8400000000000001,-1.0,0.623899908237285
0.8500000000000001,-1.0,0.6286742315709541
0.8600000000000001,-1.0,0.6309674649265481
0.8700000000000001,-1.0,0.6307705579596922
0.8800000000000001,-1.0,0.6280842877722259
0.8900000000000001,-1.0,0.6229192558453396
0.9000000000000001,-1.0,0.615295846200369
0.9100000000000001,-1.0,0.6052441449523791
0.9199999999999999,-1.0,0.5928038215740095
0.9299999999999999,-1.0,0.5780239723381928
0.94,-1.0,0.5609629265575907
0.95,-1.0,0.541688016385449
0.96,-1.0,0.5202753110863487
0.97,-1.0,0.4968093168255707
0.98,-1.0,0.4713826431618692
0.99,-1.0,0.4440956375598525
1.0,-1.0,0.4150559893643853

-1.0,-0.99,0.3843783047999413
-0.99,-0.99,0.3542381494697737
-0.98,-0.99,0.32269997799966604
-0.97,-0.99,0.2898882571439897
-0.96,-0.99,0.255932479774713
-0.95,-0.99,0.22096665383219366
-0.94,-0.99,0.18512877345706036
-0.9299999999999999,-0.99,0.14856027439038322
-0.92,-0.99,0.11140547579142077
-0.91,-0.99,0.07381101067583029
-0.9,-0.99,0.035925247222145386
-0.89,-0.99,-0.0021022967696411356
-0.88,-0.99,-0.04012154395652583
-0.87,-0.99,-0.07798244973920408
-0.86,-0.99,-0.11553559441955412
-0.85,-0.99,-0.1526327728919224
-0.84,-0.99,-0.189127579540967
-0.83,-0.99,-0.224875986037736
-0.8200000000000001,-0.99,-0.25973690975367947
-0.81,-0.99,-0.29357277054933184
-0.8,-0.99,-0.3262500337402673
-0.79,-0.99,-0.35763973709749225
-0.78,-0.99,-0.38761799980244777
-0.77,-0.99,-0.41606651134800254
-0.76,-0.99,-0.4428729984559742
-0.75,-0.99,-0.46793166816846754
-0.74,-0.99,-0.491143625364344
-0.73,-0.99,-0.5124172630530872
-0.72,-0.99,-0.531668623905738
-0.71,-0.99,-0.5488217315961234
-0.7,-0.99,-0.5638088906446981
-0.69,-0.99,-0.5765709535816785
-0.6799999999999999,-0.99,-0.5870575543750847
-0.6699999999999999,-0.99,-0.5952273072024571
-0.6599999999999999,-0.99,-0.6010479697817916
-0.6499999999999999,-0.99,-0.6044965706170957
-0.64,-0.99,-0.6055594996563871
-0.63,-0.99,-0.6042325620043543
-0.62,-0.99,-0.6005209944776903
-0.61,-0.99,-0.5944394449377677
-0.6,-0.99,-0.5860119144822262
-0.59,-0.99,-0.5752716627236011
-0.5800000000000001,-0.99,-0.5622610765288287
-0.5700000000000001,-0.99,-0.5470315027376489
-0.56,-0.99,-0.5296430455200847
-0.55,-0.99,-0.5101643291727437
-0.54,-0.99,-0.48867222729007
-0.53,-0.99,-0.46525155937938695
-0.52,-0.99,-0.43999475611705224
-0.51,-0.99,-0.4130014945668067
-0.5,-0.99,-0.3843783047999413
-0.49,-0.99,-0.354238149469774
-0.48,-0.99,-0.3226999779996658
-0.47,-0.99,-0.2898882571439894
-0.45999999999999996,-0.99,-0.2559324797747132
-0.44999999999999996,-0.99,-0.22096665383219388
-0.43999999999999995,-0.99,-0.18512877345706025
-0.42999999999999994,-0.99,-0.14856027439038325
-0.42000000000000004,-0.99,-0.11140547579142086
-0.41000000000000003,-0.99,-0.07381101067583021
-0.4,-0.99,-0.03592524722214526
-0.39,-0.99,0.0021022967696411494
-0.38,-0.99,0.04012154395652588
-0.37,-0.99,0.07798244973920412
-0.36,-0.99,0.11553559441955415
-0.35,-0.99,0.15263277289192245
-0.33999999999999997,-0.99,0.18912757954096732
-0.32999999999999996,-0.99,0.2248759860377363
-0.31999999999999995,-0.99,0.2597369097536797
-0.30999999999999994,-0.99,0.2935727705493323
-0.29999999999999993,-0.99,0.3262500337402673
-0.29000000000000004,-0.99,0.3576397370974924
-0.28,-0.99,0.387617999802448
-0.27,-0.99,0.41606651134800243
-0.26,-0.99,0.44287299845597433
-0.25,-0.99,0.4679316681684677
-0.24,-0.99,0.4911436253643443
-0.22999999999999998,-0.99,0.512417263053087
-0.21999999999999997,-0.99,0.5316686239057382
-0.20999999999999996,-0.99,0.5488217315961237
-0.19999999999999996,-0.99,0.5638088906446976
-0.18999999999999995,-0.99,0.5765709535816785
-0.17999999999999994,-0.99,0.5870575543750844
-0.16999999999999993,-0.99,0.595227307202457
-0.16000000000000003,-0.99,0.6010479697817919
-0.15000000000000002,-0.99,0.6044965706170957
-0.14,-0.99,0.605559499656387
-0.13,-0.99,0.6042325620043542
-0.12,-0.99,0.6005209944776904
-0.10999999999999999,-0.99,0.5944394449377677
-0.09999999999999998,-0.99,0.5860119144822263
-0.08999999999999997,-0.99,0.5752716627236008
-0.07999999999999996,-0.99,0.5622610765288287
-0.06999999999999995,-0.99,0.5470315027376487
-0.05999999999999994,-0.99,0.5296430455200846
-0.04999999999999993,-0.99,0.510164329172744
-0.040000000000000036,-0.99,0.48867222729006987
-0.030000000000000027,-0.99,0.4652515593793868
-0.020000000000000018,-0.99,0.43999475611705197
-0.010000000000000009,-0.99,0.41300149456680657
0.0,-0.99,0.3843783047999412
0.010000000000000009,-0.99,0.35423814946977367
0.020000000000000018,-0.99,0.32269997799966593
0.030000000000000027,-0.99,0.2898882571439897
0.040000000000000036,-0.99,0.25593247977471306
0.050000000000000044,-0.99,0.22096665383219383
0.06000000000000005,-0.99,0.18512877345706033
0.07000000000000006,-0.99,0.14856027439038344
0.08000000000000007,-0.99,0.11140547579142099
0.09000000000000008,-0.99,0.07381101067583043
0.10000000000000009,-0.99,0.03592524722214545
0.1100000000000001,-0.99,-0.0021022967696410107
0.1200000000000001,-0.99,-0.04012154395652583
0.13000000000000012,-0.99,-0.07798244973920394
0.14000000000000012,-0.99,-0.11553559441955404
0.15000000000000013,-0.99,-0.15263277289192217
0.15999999999999992,-0.99,-0.18912757954096715
0.16999999999999993,-0.99,-0.22487598603773593
0.17999999999999994,-0.99,-0.2597369097536796
0.18999999999999995,-0.99,-0.29357277054933206
0.19999999999999996,-0.99,-0.3262500337402673
0.20999999999999996,-0.99,-0.35763973709749236
0.21999999999999997,-0.99,-0.3876179998024477
0.22999999999999998,-0.99,-0.41606651134800215
0.24,-0.99,-0.44287299845597394
0.25,-0.99,-0.46793166816846765
0.26,-0.99,-0.49114362536434464
0.27,-0.99,-0.5124172630530871
0.28,-0.99,-0.5316686239057383
0.29000000000000004,-0.99,-0.5488217315961234
0.30000000000000004,-0.99,-0.5638088906446976
0.31000000000000005,-0.99,-0.5765709535816781
0.32000000000000006,-0.99,-0.5870575543750847
0.33000000000000007,-0.99,-0.5952273072024576
0.3400000000000001,-0.99,-0.6010479697817921
0.3500000000000001,-0.99,-0.6044965706170953
0.3600000000000001,-0.99,-0.6055594996563866
0.3700000000000001,-0.99,-0.6042325620043546
0.3800000000000001,-0.99,-0.6005209944776899
0.3900000000000001,-0.99,-0.5944394449377679
0.40000000000000013,-0.99,-0.5860119144822269
0.4099999999999999,-0.99,-0.575271662723601
0.41999999999999993,-0.99,-0.5622610765288285
0.42999999999999994,-0.99,-0.5470315027376484
0.43999999999999995,-0.99,-0.5296430455200847
0.44999999999999996,-0.99,-0.5101643291727437
0.45999999999999996,-0.99,-0.48867222729007
0.47,-0.99,-0.46525155937938667
0.48,-0.99,-0.4399947561170521
0.49,-0.99,-0.4130014945668069
0.5,-0.99,-0.3843783047999412
0.51,-0.99,-0.35423814946977367
0.52,-0.99,-0.322699977999666
0.53,-0.99,-0.28988825714398936
0.54,-0.99,-0.2559324797747132
0.55,-0.99,-0.22096665383219372
0.56,-0.99,-0.1851287734570604
0.5700000000000001,-0.99,-0.1485602743903833
0.5800000000000001,-0.99,-0.11140547579142106
0.5900000000000001,-0.99,-0.07381101067583032
0.6000000000000001,-0.99,-0.03592524722214538
0.6100000000000001,-0.99,0.0021022967696410558
0.6200000000000001,-0.99,0.040121543956525826
0.6300000000000001,-0.99,0.077982449739204
0.6400000000000001,-0.99,0.11553559441955404
0.6500000000000001,-0.99,0.1526327728919224
0.6600000000000001,-0.99,0.1891275795409671
0.6699999999999999,-0.99,0.22487598603773606
0.6799999999999999,-0.99,0.25973690975367947
0.69,-0.99,0.29357277054933206
0.7,-0.99,0.3262500337402673
0.71,-0.99,0.35763973709749247
0.72,-0.99,0.38761799980244777
0.73,-0.99,0.41606651134800215
0.74,-0.99,0.44287299845597405
0.75,-0.99,0.4679316681684676
0.76,-0.99,0.4911436253643443
0.77,-0.99,0.5124172630530872
0.78,-0.99,0.5316686239057385
0.79,-0.99,0.5488217315961235
0.8,-0.99,0.5638088906446981
0.81,-0.99,0.5765709535816783
0.8200000000000001,-0.99,0.5870575543750848
0.8300000000000001,-0.99,0.595227307202457
0.8400000000000001,-0.99,0.6010479697817921
0.8500000000000001,-0.99,0.6044965706170955
0.8600000000000001,-0.99,0.6055594996563869
0.8700000000000001,-0.99,0.6042325620043542
0.8800000000000001,-0.99,0.6005209944776904
0.8900000000000001,-0.99,0.5944394449377681
0.9000000000000001,-0.99,0.5860119144822264
0.9100000000000001,-0.99,0.5752716627236005
0.9199999999999999,-0.99,0.562261076528829
0.9299999999999999,-0.99,0.5470315027376491
0.94,-0.99,0.5296430455200848
0.95,-0.99,0.5101643291727439
0.96,-0.99,0.48867222729007004
0.97,-0.99,0.46525155937938667
0.98,-0.99,0.4399947561170518
0.99,-0.99,0.4130014945668067
1.0,-0.99,0.3843783047999413

-1.0,-0.98,0.35218365467219515
-0.99,-0.98,0.32269997799966604
-0.98,-0.98,0.2919427519415684
-0.97,-0.98,0.2600333612175138
-0.96,-0.98,0.22709773761467622
-0.95,-0.98,0.1932658629925611
-0.94,-0.98,0.15867125630398798
-0.9299999999999999,-0.98,0.12345044665678488
-0.92,-0.98,0.08774243449577192
-0.91,-0.98,0.05168814303150933
-0.9,-0.98,0.01542986208076766
-0.89,-0.98,-0.020889313486373275
-0.88,-0.98,-0.05712604847660313
-0.87,-0.98,-0.09313733305190484
-0.86,-0.98,-0.12878104712405067
-0.85,-0.98,-0.1639165212376617
-0.84,-0.98,-0.1984050917282832
-0.83,-0.98,-0.23211064796451739
-0.8200000000000001,-0.98,-0.2649001695145039
-0.81,-0.98,-0.2966442511167924
-0.8,-0.98,-0.3272176133837899
-0.79,-0.98,-0.35649959722226954
-0.78,-0.98,-0.3843746400196866
-0.77,-0.98,-0.41073273171701485
-0.76,-0.98,-0.4354698489681921
-0.75,-0.98,-0.4584883656727414
-0.74,-0.98,-0.47969743826139105
-0.73,-0.98,-0.49901336421413545
-0.72,-0.98,-0.5163599123958478
-0.71,-0.98,-0.5316686239057387
-0.7,-0.98,-0.5448790822533627
-0.69,-0.98,-0.5559391517949064
-0.6799999999999999,-0.98,-0.5648051834887549
-0.6699999999999999,-0.98,-0.5714421871583166
-0.6599999999999999,-0.98,-0.5758239695822676
-0.6499999999999999,-0.98,-0.5779332378672251
-0.64,-0.98,-0.5777616676949016
-0.63,-0.98,-0.5753099361743848
-0.62,-0.98,-0.5705877191698958
-0.61,-0.98,-0.563613653114577
-0.6,-0.98,-0.5544152614610002
-0.59,-0.98,-0.5430288460586762
-0.5800000000000001,-0.98,-0.52949934388724
-0.5700000000000001,-0.98,-0.5138801497107208
-0.56,-0.98,-0.49623290535280207
-0.55,-0.98,-0.47662725642470594
-0.54,-0.98,-0.4551405774657821
-0.53,-0.98,-0.4318576665815516
-0.52,-0.98,-0.4068704107843242
-0.51,-0.98,-0.38027742335714043
-0.5,-0.98,-0.35218365467219537
-0.49,-0.98,-0.3226999779996659
-0.48,-0.98,-0.2919427519415681
-0.47,-0.98,-0.2600333612175139
-0.45999999999999996,-0.98,-0.22709773761467644
-0.44999999999999996,-0.98,-0.19326586299256093
-0.43999999999999995,-0.98,-0.15867125630398804
-0.42999999999999994,-0.98,-0.123450446656785
-0.42000000000000004,-0.98,-0.08774243449577182
-0.41000000000000003,-0.98,-0.05168814303150921
-0.4,-0.98,-0.015429862080767647
-0.39,-0.98,0.020889313486373313
-0.38,-0.98,0.05712604847660315
-0.37,-0.98,0.09313733305190489
-0.36,-0.98,0.12878104712405072
-0.35,-0.98,0.16391652123766193
-0.33999999999999997,-0.98,0.19840509172828347
-0.32999999999999996,-0.98,0.23211064796451764
-0.31999999999999995,-0.98,0.26490016951450424
-0.30999999999999994,-0.98,0.2966442511167924
-0.29999999999999993,-0.98,0.3272176133837901
-0.29000000000000004,-0.98,0.35649959722226976
-0.28,-0.98,0.38437464001968646
-0.27,-0.98,0.4107327317170149
-0.26,-0.98,0.4354698489681922
-0.25,-0.98,0.45848836567274176
-0.24,-0.98,0.47969743826139094
-0.22999999999999998,-0.98,0.49901336421413567
-0.21999999999999997,-0.98,0.5163599123958481
-0.20999999999999996,-0.98,0.5316686239057382
-0.19999999999999996,-0.98,0.5448790822533627
-0.18999999999999995,-0.98,0.5559391517949063
-0.17999999999999994,-0.98,0.5648051834887546
-0.16999999999999993,-0.98,0.571442187158317
-0.16000000000000003,-0.98,0.5758239695822678
-0.15000000000000002,-0.98,0.577933237867225
-0.14,-0.98,0.5777616676949016
-0.13,-0.98,0.575309936174385
-0.12,-0.98,0.570587719169896
-0.10999999999999999,-0.98,0.5636136531145771
-0.09999999999999998,-0.98,0.5544152614609998
-0.08999999999999997,-0.98,0.5430288460586762
-0.07999999999999996,-0.98,0.52949934388724
-0.06999999999999995,-0.98,0.5138801497107208
-0.05999999999999994,-0.98,0.4962329053528023
-0.04999999999999993,-0.98,0.47662725642470577
-0.040000000000000036,-0.98,0.4551405774657819
-0.030000000000000027,-0.98,0.43185766658155134
-0.020000000000000018,-0.98,0.406870410784324
-0.010000000000000009,-0.98,0.3802774233571403
0.0,-0.98,0.35218365467219503
0.010000000000000009,-0.98,0.3226999779996659
0.020000000000000018,-0.98,0.2919427519415684
0.030000000000000027,-0.98,0.26003336121751375
0.040000000000000036,-0.98,0.2270977376146764
0.050000000000000044,-0.98,0.193265862992561
0.06000000000000005,-0.98,0.15867125630398823
0.07000000000000006,-0.98,0.12345044665678512
0.08000000000000007,-0.98,0.08774243449577206
0.09000000000000008,-0.98,0.05168814303150941
0.10000000000000009,-0.98,0.01542986208076777
0.1100000000000001,-0.98,-0.020889313486373264
0.1200000000000001,-0.98,-0.057126048476602985
0.13000000000000012,-0.98,-0.09313733305190476
0.14000000000000012,-0.98,-0.12878104712405047
0.15000000000000013,-0.98,-0.16391652123766182
0.15999999999999992,-0.98,-0.1984050917282832
0.16999999999999993,-0.98,-0.23211064796451747
0.17999999999999994,-0.98,-0.2649001695145041
0.18999999999999995,-0.98,-0.2966442511167924
0.19999999999999996,-0.98,-0.32721761338378996
0.20999999999999996,-0.98,-0.35649959722226954
0.21999999999999997,-0.98,-0.38437464001968624
0.22999999999999998,-0.98,-0.4107327317170145
0.24,-0.98,-0.4354698489681921
0.25,-0.98,-0.458488365672742
0.26,-0.98,-0.4796974382613911
0.27,-0.98,-0.49901336421413567
0.28,-0.98,-0.5163599123958478
0.29000000000000004,-0.98,-0.5316686239057382
0.30000000000000004,-0.98,-0.5448790822533622
0.31000000000000005,-0.98,-0.5559391517949065
0.32000000000000006,-0.98,-0.5648051834887553
0.33000000000000007,-0.98,-0.5714421871583171
0.3400000000000001,-0.98,-0.5758239695822671
0.3500000000000001,-0.98,-0.5779332378672246
0.3600000000000001,-0.98,-0.5777616676949018
0.3700000000000001,-0.98,-0.5753099361743845
0.3800000000000001,-0.98,-0.5705877191698961
0.3900000000000001,-0.98,-0.5636136531145775
0.40000000000000013,-0.98,-0.5544152614610001
0.4099999999999999,-0.98,-0.5430288460586761
0.41999999999999993,-0.98,-0.5294993438872397
0.42999999999999994,-0.98,-0.5138801497107208
0.43999999999999995,-0.98,-0.49623290535280207
0.44999999999999996,-0.98,-0.47662725642470594
0.45999999999999996,-0.98,-0.45514057746578196
0.47,-0.98,-0.43185766658155134
0.48,-0.98,-0.4068704107843243
0.49,-0.98,-0.3802774233571405
0.5,-0.98,-0.35218365467219503
0.51,-0.98,-0.32269997799966593
0.52,-0.98,-0.29194275194156805
0.53,-0.98,-0.2600333612175139
0.54,-0.98,-0.22709773761467628
0.55,-0.98,-0.1932658629925611
0.56,-0.98,-0.1586712563039881
0.5700000000000001,-0.98,-0.1234504466567852
0.5800000000000001,-0.98,-0.08774243449577195
0.5900000000000001,-0.98,-0.051688143031509315
0.6000000000000001,-0.98,-0.015429862080767727
0.6100000000000001,-0.98,0.020889313486373268
0.6200000000000001,-0.98,0.05712604847660305
0.6300000000000001,-0.98,0.09313733305190477
0.6400000000000001,-0.98,0.12878104712405067
0.6500000000000001,-0.98,0.16391652123766173
0.6600000000000001,-0.98,0.19840509172828324
0.6699999999999999,-0.98,0.23211064796451739
0.6799999999999999,-0.98,0.264900169514504
0.69,-0.98,0.2966442511167924
0.7,-0.98,0.3272176133837901
0.71,-0.98,0.35649959722226954
0.72,-0.98,0.38437464001968624
0.73,-0.98,0.41073273171701463
0.74,-0.98,0.43546984896819196
0.75,-0.98,0.45848836567274165
0.76,-0.98,0.4796974382613911
0.77,-0.98,0.49901336421413595
0.78,-0.98,0.516359912395848
0.79,-0.98,0.5316686239057385
0.8,-0.98,0.5448790822533622
0.81,-0.98,0.5559391517949065
0.8200000000000001,-0.98,0.5648051834887547
0.8300000000000001,-0.98,0.5714421871583172
0.8400000000000001,-0.98,0.5758239695822673
0.8500000000000001,-0.98,0.5779332378672248
0.8600000000000001,-0.98,0.5777616676949016
0.8700000000000001,-0.98,0.575309936174385
0.8800000000000001,-0.98,0.5705877191698963
0.8900000000000001,-0.98,0.5636136531145773
0.9000000000000001,-0.98,0.5544152614609996
0.9100000000000001,-0.98,0.5430288460586763
0.9199999999999999,-0.98,0.5294993438872403
0.9299999999999999,-0.98,0.5138801497107208
0.94,-0.98,0.4962329053528023
0.95,-0.98,0.4766272564247058
0.96,-0.98,0.45514057746578196
0.97,-0.98,0.4318576665815512
0.98,-0.98,0.4068704107843242
0.99,-0.98,0.38027742335714043
1.0,-0.98,0.35218365467219515

-1.0,-0.97,0.3185990965568653
-0.99,-0.97,0.28988825714398964
-0.98,-0.97,0.2600333612175138
-0.97,-0.97,0.22915223241225488
-0.96,-0.97,0.19736674443536184
-0.95,-0.97,0.16480234008647057
-0.94,-0.97,0.13158753619228558
-0.9299999999999999,-0.97,0.0978534164093767
-0.92,-0.97,0.06373311389687347
-0.91,-0.97,0.029361285900709303
-0.9,-0.97,-0.005126417677009328
-0.89,-0.97,-0.03959388962619433
-0.88,-0.97,-0.07390510258175229
-0.87,-0.97,-0.10792464586144969
-0.86,-0.97,-0.14151825987001243
-0.85,-0.97,-0.1745533659604115
-0.84,-0.97,-0.20689958966121205
-0.83,-0.97,-0.23842927520505114
-0.8200000000000001,-0.97,-0.2690179893276303
-0.81,-0.97,-0.298545012348962
-0.8,-0.97,-0.32689381459879474
-0.79,-0.97,-0.3539525163059841
-0.78,-0.97,-0.3796143291368367
-0.77,-0.97,-0.4037779776398762
-0.76,-0.97,-0.426348098933782
-0.75,-0.97,-0.44723561906111553
-0.74,-0.97,-0.4663581045225329
-0.73,-0.97,-0.48364008760415195
-0.72,-0.97,-0.499013364214136
-0.71,-0.97,-0.5124172630530872
-0.7,-0.97,-0.5237988850559469
-0.69,-0.97,-0.533113312160439
-0.6799999999999999,-0.97,-0.5403237845781386
-0.6699999999999999,-0.97,-0.5454018458685651
-0.6599999999999999,-0.97,-0.54832745524375
-0.6499999999999999,-0.97,-0.5490890666600736
-0.64,-0.97,-0.5476836743852227
-0.63,-0.97,-0.5441168248604432
-0.62,-0.97,-0.5384025948112717
-0.61,-0.97,-0.5305635356931284
-0.6,-0.97,-0.5206305846910269
-0.59,-0.97,-0.508642942624639
-0.5800000000000001,-0.97,-0.4946479192405682
-0.5700000000000001,-0.97,-0.4787007465023934
-0.56,-0.97,-0.46086436061534186
-0.55,-0.97,-0.44120915364584046
-0.54,-0.97,-0.4198126957161875
-0.53,-0.97,-0.39675942887071936
-0.52,-0.97,-0.3721403338216398
-0.51,-0.97,-0.34605257088971286
-0.5,-0.97,-0.318599096556865
-0.49,-0.97,-0.28988825714398947
-0.48,-0.97,-0.2600333612175139
-0.47,-0.97,-0.22915223241225513
-0.45999999999999996,-0.97,-0.19736674443536167
-0.44999999999999996,-0.97,-0.16480234008647063
-0.43999999999999995,-0.97,-0.13158753619228572
-0.42999999999999994,-0.97,-0.09785341640937663
-0.42000000000000004,-0.97,-0.06373311389687333
-0.41000000000000003,-0.97,-0.02936128590070928
-0.4,-0.97,0.005126417677009368
-0.39,-0.97,0.03959388962619436
-0.38,-0.97,0.07390510258175231
-0.37,-0.97,0.10792464586144973
-0.36,-0.97,0.14151825987001265
-0.35,-0.97,0.1745533659604117
-0.33999999999999997,-0.97,0.20689958966121227
-0.32999999999999996,-0.97,0.2384292752050514
-0.31999999999999995,-0.97,0.2690179893276303
-0.30999999999999994,-0.97,0.298545012348962
-0.29999999999999993,-0.97,0.32689381459879485
-0.29000000000000004,-0.97,0.353952516305984
-0.28,-0.97,0.3796143291368367
-0.27,-0.97,0.4037779776398762
-0.26,-0.97,0.4263480989337824
-0.25,-0.97,0.4472356190611154
-0.24,-0.97,0.46635810452253307
-0.22999999999999998,-0.97,0.483640087604152
-0.21999999999999997,-0.97,0.49901336421413567
-0.20999999999999996,-0.97,0.5124172630530872
-0.19999999999999996,-0.97,0.5237988850559467
-0.18999999999999995,-0.97,0.5331133121604388
-0.17999999999999994,-0.97,0.5403237845781387
-0.16999999999999993,-0.97,0.5454018458685654
-0.16000000000000003,-0.97,0.54832745524375
-0.15000000000000002,-0.97,0.5490890666600735
-0.14,-0.97,0.5476836743852229
-0.13,-0.97,0.5441168248604433
-0.12,-0.97,0.5384025948112716
-0.10999999999999999,-0.97,0.5305635356931282
-0.09999999999999998,-0.97,0.5206305846910269
-0.08999999999999997,-0.97,0.508642942624639
-0.07999999999999996,-0.97,0.4946479192405683
-0.06999999999999995,-0.97,0.4787007465023935
-0.05999999999999994,-0.97,0.46086436061534186
-0.04999999999999993,-0.97,0.44120915364584024
-0.040000000000000036,-0.97,0.4198126957161872
-0.030000000000000027,-0.97,0.39675942887071924
-0.020000000000000018,-0.97,0.3721403338216397
-0.010000000000000009,-0.97,0.3460525708897124
0.0,-0.97,0.31859909655686525
0.010000000000000009,-0.97,0.2898882571439897
0.020000000000000018,-0.97,0.26003336121751375
0.030000000000000027,-0.97,0.22915223241225507
0.040000000000000036,-0.97,0.19736674443536173
0.050000000000000044,-0.97,0.1648023400864708
0.06000000000000005,-0.97,0.1315875361922858
0.07000000000000006,-0.97,0.09785341640937684
0.08000000000000007,-0.97,0.06373311389687354
0.09000000000000008,-0.97,0.02936128590070939
0.10000000000000009,-0.97,-0.005126417677009311
0.1100000000000001,-0.97,-0.03959388962619419
0.1200000000000001,-0.97,-0.07390510258175219
0.13000000000000012,-0.97,-0.10792464586144954
0.14000000000000012,-0.97,-0.14151825987001254
0.15000000000000013,-0.97,-0.17455336596041143
0.15999999999999992,-0.97,-0.20689958966121208
0.16999999999999993,-0.97,-0.2384292752050513
0.17999999999999994,-0.97,-0.2690179893276303
0.18999999999999995,-0.97,-0.2985450123489619
0.19999999999999996,-0.97,-0.32689381459879463
0.20999999999999996,-0.97,-0.3539525163059839
0.21999999999999997,-0.97,-0.37961432913683635
0.22999999999999998,-0.97,-0.40377797763987616
0.24,-0.97,-0.4263480989337825
0.25,-0.97,-0.44723561906111553
0.26,-0.97,-0.4663581045225331
0.27,-0.97,-0.48364008760415184
0.28,-0.97,-0.49901336421413567
0.29000000000000004,-0.97,-0.5124172630530867
0.30000000000000004,-0.97,-0.5237988850559471
0.31000000000000005,-0.97,-0.5331133121604393
0.32000000000000006,-0.97,-0.5403237845781389
0.33000000000000007,-0.97,-0.5454018458685648
0.3400000000000001,-0.97,-0.5483274552437497
0.3500000000000001,-0.97,-0.5490890666600737
0.3600000000000001,-0.97,-0.5476836743852225
0.3700000000000001,-0.97,-0.5441168248604433
0.3800000000000001,-0.97,-0.5384025948112723
0.3900000000000001,-0.97,-0.5305635356931282
0.40000000000000013,-0.97,-0.5206305846910267
0.4099999999999999,-0.97,-0.5086429426246388
0.41999999999999993,-0.97,-0.4946479192405684
0.42999999999999994,-0.97,-0.47870074650239325
0.43999999999999995,-0.97,-0.460864360615342
0.44999999999999996,-0.97,-0.4412091536458403
0.45999999999999996,-0.97,-0.41981269571618723
0.47,-0.97,-0.39675942887071947
0.48,-0.97,-0.3721403338216399
0.49,-0.97,-0.34605257088971253
0.5,-0.97,-0.31859909655686514
0.51,-0.97,-0.28988825714398936
0.52,-0.97,-0.26003336121751397
0.53,-0.97,-0.22915223241225496
0.54,-0.97,-0.1973667444353618
0.55,-0.97,-0.1648023400864707
0.56,-0.97,-0.1315875361922859
0.5700000000000001,-0.97,-0.09785341640937674
0.5800000000000001,-0.97,-0.06373311389687344
0.5900000000000001,-0.97,-0.02936128590070935
0.6000000000000001,-0.97,0.005126417677009321
0.6100000000000001,-0.97,0.03959388962619426
0.6200000000000001,-0.97,0.07390510258175222
0.6300000000000001,-0.97,0.1079246458614497
0.6400000000000001,-0.97,0.14151825987001249
0.6500000000000001,-0.97,0.17455336596041152