TITLE = "Solution" 
VARIABLES = "x", "y", "sol" 
ZONE STRANDID=1, SOLUTIONTIME= 0.7000000000000005, I= 201, J =201, DATAPACKING=POINT 
-1.0,-1.0,0.7837135719998893
-0.99,-1.0,0.7637134216063277
-0.98,-1.0,0.74069924324516
-0.97,-1.0,0.7147618633641986
-0.96,-1.0,0.6860036449521731
-0.95,-1.0,0.6545380835587755
-0.94,-1.0,0.6204893593795775
-0.9299999999999999,-1.0,0.5839918471735321
-0.92,-1.0,0.5451895859471891
-0.91,-1.0,0.5042357104985421
-0.9,-1.0,0.46129184706394133
-0.89,-1.0,0.4165274754531776
-0.88,-1.0,0.37011926019010266
-0.87,-1.0,0.3222503532984632
-0.86,-1.0,0.27310967148453713
-0.85,-1.0,0.2228911505692019
-0.84,-1.0,0.17179298011185062
-0.83,-1.0,0.12001682124674498
-0.8200000000000001,-1.0,0.0677670108186485
-0.81,-1.0,0.015249754958653012
-0.8,-1.0,-0.03732768471721385
-0.79,-1.0,-0.08975780907489905
-0.78,-1.0,-0.14183370036660792
-0.77,-1.0,-0.1933498388406236
-0.76,-1.0,-0.24410291383387464
-0.75,-1.0,-0.2938926261462366
-0.74,-1.0,-0.34252247852996875
-0.73,-1.0,-0.38980055117457846
-0.72,-1.0,-0.4355402591266344
-0.71,-1.0,-0.479561088655335
-0.7,-1.0,-0.5216893096577335
-0.69,-1.0,-0.5617586612920881
-0.6799999999999999,-1.0,-0.5996110081334428
-0.6699999999999999,-1.0,-0.6350969642619069
-0.6599999999999999,-1.0,-0.6680764828206329
-0.6499999999999999,-1.0,-0.698419408716779
-0.64,-1.0,-0.7260059922841962
-0.63,-1.0,-0.7507273618806555
-0.62,-1.0,-0.7724859535544795
-0.61,-1.0,-0.7911958960848853
-0.6,-1.0,-0.8067833498764676
-0.59,-1.0,-0.819186798370339
-0.5800000000000001,-1.0,-0.8283572908218919
-0.5700000000000001,-1.0,-0.8342586354870187
-0.56,-1.0,-0.8368675424543947
-0.55,-1.0,-0.8361737155601159
-0.54,-1.0,-0.8321798930219544
-0.53,-1.0,-0.8249018366328642
-0.52,-1.0,-0.8143682695563854
-0.51,-1.0,-0.8006207629694404
-0.5,-1.0,-0.7837135719998891
-0.49,-1.0,-0.7637134216063279
-0.48,-1.0,-0.7406992432451596
-0.47,-1.0,-0.7147618633641986
-0.45999999999999996,-1.0,-0.6860036449521731
-0.44999999999999996,-1.0,-0.6545380835587752
-0.43999999999999995,-1.0,-0.6204893593795775
-0.42999999999999994,-1.0,-0.5839918471735318
-0.42000000000000004,-1.0,-0.5451895859471889
-0.41000000000000003,-1.0,-0.5042357104985421
-0.4,-1.0,-0.4612918470639412
-0.39,-1.0,-0.41652747545317736
-0.38,-1.0,-0.3701192601901028
-0.37,-1.0,-0.3222503532984631
-0.36,-1.0,-0.2731096714845371
-0.35,-1.0,-0.22289115056920195
-0.33999999999999997,-1.0,-0.1717929801118505
-0.32999999999999996,-1.0,-0.12001682124674493
-0.31999999999999995,-1.0,-0.06776701081864839
-0.30999999999999994,-1.0,-0.015249754958652929
-0.29999999999999993,-1.0,0.03732768471721393
-0.29000000000000004,-1.0,0.08975780907489911
-0.28,-1.0,0.14183370036660792
-0.27,-1.0,0.19334983884062384
-0.26,-1.0,0.24410291383387459
-0.25,-1.0,0.2938926261462369
-0.24,-1.0,0.34252247852996875
-0.22999999999999998,-1.0,0.3898005511745784
-0.21999999999999997,-1.0,0.4355402591266345
-0.20999999999999996,-1.0,0.47956108865533476
-0.19999999999999996,-1.0,0.5216893096577337
-0.18999999999999995,-1.0,0.561758661292088
-0.17999999999999994,-1.0,0.5996110081334428
-0.16999999999999993,-1.0,0.6350969642619069
-0.16000000000000003,-1.0,0.6680764828206329
-0.15000000000000002,-1.0,0.698419408716779
-0.14,-1.0,0.726005992284196
-0.13,-1.0,0.7507273618806556
-0.12,-1.0,0.772485953554479
-0.10999999999999999,-1.0,0.7911958960848859
-0.09999999999999998,-1.0,0.8067833498764676
-0.08999999999999997,-1.0,0.8191867983703393
-0.07999999999999996,-1.0,0.8283572908218917
-0.06999999999999995,-1.0,0.8342586354870191
-0.05999999999999994,-1.0,0.836867542454395
-0.04999999999999993,-1.0,0.8361737155601159
-0.040000000000000036,-1.0,0.8321798930219546
-0.030000000000000027,-1.0,0.824901836632864
-0.020000000000000018,-1.0,0.8143682695563859
-0.010000000000000009,-1.0,0.8006207629694405
0.0,-1.0,0.7837135719998892
0.010000000000000009,-1.0,0.7637134216063276
0.020000000000000018,-1.0,0.7406992432451596
0.030000000000000027,-1.0,0.7147618633641987
0.040000000000000036,-1.0,0.6860036449521734
0.050000000000000044,-1.0,0.6545380835587753
0.06000000000000005,-1.0,0.6204893593795772
0.07000000000000006,-1.0,0.583991847173532
0.08000000000000007,-1.0,0.5451895859471891
0.09000000000000008,-1.0,0.5042357104985422
0.10000000000000009,-1.0,0.4612918470639411
0.1100000000000001,-1.0,0.4165274754531775
0.1200000000000001,-1.0,0.3701192601901026
0.13000000000000012,-1.0,0.32225035329846324
0.14000000000000012,-1.0,0.273109671484537
0.15000000000000013,-1.0,0.22289115056920183
0.15999999999999992,-1.0,0.17179298011185054
0.16999999999999993,-1.0,0.12001682124674481
0.17999999999999994,-1.0,0.06776701081864829
0.18999999999999995,-1.0,0.015249754958652864
0.19999999999999996,-1.0,-0.03732768471721404
0.20999999999999996,-1.0,-0.08975780907489914
0.21999999999999997,-1.0,-0.14183370036660795
0.22999999999999998,-1.0,-0.1933498388406239
0.24,-1.0,-0.24410291383387478
0.25,-1.0,-0.2938926261462365
0.26,-1.0,-0.3425224785299688
0.27,-1.0,-0.38980055117457846
0.28,-1.0,-0.43554025912663447
0.29000000000000004,-1.0,-0.47956108865533464
0.30000000000000004,-1.0,-0.5216893096577335
0.31000000000000005,-1.0,-0.5617586612920883
0.32000000000000006,-1.0,-0.5996110081334425
0.33000000000000007,-1.0,-0.6350969642619068
0.3400000000000001,-1.0,-0.6680764828206333
0.3500000000000001,-1.0,-0.6984194087167787
0.3600000000000001,-1.0,-0.7260059922841958
0.3700000000000001,-1.0,-0.7507273618806556
0.3800000000000001,-1.0,-0.7724859535544792
0.3900000000000001,-1.0,-0.7911958960848856
0.40000000000000013,-1.0,-0.8067833498764673
0.4099999999999999,-1.0,-0.819186798370339
0.41999999999999993,-1.0,-0.8283572908218919
0.42999999999999994,-1.0,-0.8342586354870184
0.43999999999999995,-1.0,-0.8368675424543948
0.44999999999999996,-1.0,-0.8361737155601159
0.45999999999999996,-1.0,-0.8321798930219542
0.47,-1.0,-0.8249018366328638
0.48,-1.0,-0.8143682695563855
0.49,-1.0,-0.8006207629694405
0.5,-1.0,-0.7837135719998893
0.51,-1.0,-0.7637134216063277
0.52,-1.0,-0.7406992432451598
0.53,-1.0,-0.7147618633641988
0.54,-1.0,-0.686003644952173
0.55,-1.0,-0.6545380835587753
0.56,-1.0,-0.6204893593795775
0.5700000000000001,-1.0,-0.5839918471735323
0.5800000000000001,-1.0,-0.5451895859471888
0.5900000000000001,-1.0,-0.5042357104985424
0.6000000000000001,-1.0,-0.46129184706394105
0.6100000000000001,-1.0,-0.4165274754531772
0.6200000000000001,-1.0,-0.3701192601901023
0.6300000000000001,-1.0,-0.32225035329846285
0.6400000000000001,-1.0,-0.2731096714845369
0.6500000000000001,-1.0,-0.22289115056920178
0.6600000000000001,-1.0,-0.1717929801118506
0.6699999999999999,-1.0,-0.12001682124674487
0.6799999999999999,-1.0,-0.06776701081864825
0.69,-1.0,-0.015249754958652818
0.7,-1.0,0.03732768471721406
0.71,-1.0,0.08975780907489919
0.72,-1.0,0.14183370036660795
0.73,-1.0,0.19334983884062384
0.74,-1.0,0.24410291383387475
0.75,-1.0,0.2938926261462367
0.76,-1.0,0.3425224785299687
0.77,-1.0,0.38980055117457857
0.78,-1.0,0.43554025912663447
0.79,-1.0,0.479561088655335
0.8,-1.0,0.5216893096577337
0.81,-1.0,0.5617586612920881
0.8200000000000001,-1.0,0.5996110081334428
0.8300000000000001,-1.0,0.6350969642619072
0.8400000000000001,-1.0,0.6680764828206331
0.8500000000000001,-1.0,0.6984194087167785
0.8600000000000001,-1.0,0.7260059922841959
0.8700000000000001,-1.0,0.7507273618806553
0.8800000000000001,-1.0,0.772485953554479
0.8900000000000001,-1.0,0.7911958960848862
0.9000000000000001,-1.0,0.8067833498764674
0.9100000000000001,-1.0,0.819186798370339
0.9199999999999999,-1.0,0.8283572908218919
0.9299999999999999,-1.0,0.8342586354870187
0.94,-1.0,0.8368675424543947
0.95,-1.0,0.8361737155601159
0.96,-1.0,0.8321798930219539
0.97,-1.0,0.8249018366328638
0.98,-1.0,0.8143682695563855
0.99,-1.0,0.8006207629694406
1.0,-1.0,0.7837135719998893

-1.0,-0.99,0.7637134216063277
-0.99,-0.99,0.7436893885231215
-0.98,-0.99,0.7207303531827771
-0.97,-0.99,0.6949269244087987
-0.96,-0.99,0.6663809365460909
-0.95,-0.99,0.6352050475673267
-0.94,-0.99,0.6015222944633967
-0.9299999999999999,-0.99,0.5654656076726154
-0.92,-0.99,0.5271772864650133
-0.91,-0.99,0.4868084373521267
-0.9,-0.99,0.4445183777386307
-0.89,-0.99,0.4004740071693299
-0.88,-0.99,0.3548491486529023
-0.87,-0.99,0.3078238626618971
-0.86,-0.99,0.25958373651631106
-0.85,-0.99,0.21031915195522363
-0.84,-0.99,0.16022453378704984
-0.83,-0.99,0.1094975825836451
-0.8200000000000001,-0.99,0.05833849444646973
-0.81,-0.99,0.006949170924037103
-0.8,-0.99,-0.04446757780125862
-0.79,-0.99,-0.0957088333122766
-0.78,-0.99,-0.1465723697834176
-0.77,-0.99,-0.19685745207356983
-0.76,-0.99,-0.2463656279360027
-0.75,-0.99,-0.2949015112187212
-0.74,-0.99,-0.3422735529643445
-0.73,-0.99,-0.38829479736632955
-0.72,-0.99,-0.43278361959812894
-0.71,-0.99,-0.47556444260340236
-0.7,-0.99,-0.5164684300184477
-0.69,-0.99,-0.5553341524921918
-0.6799999999999999,-0.99,-0.5920082247740902
-0.6699999999999999,-0.99,-0.6263459110556362
-0.6599999999999999,-0.99,-0.6582116961764741
-0.6499999999999999,-0.99,-0.6874798204408232
-0.64,-0.99,-0.7140347759335464
-0.63,-0.99,-0.7377717623771194
-0.62,-0.99,-0.7585971007304462
-0.61,-0.99,-0.7764286028972402
-0.6,-0.99,-0.7911958960848857
-0.59,-0.99,-0.8028407005337066
-0.5800000000000001,-0.99,-0.8113170595205474
-0.5700000000000001,-0.99,-0.8165915207289681
-0.56,-0.99,-0.8186432682702511
-0.55,-0.99,-0.8174642048342049
-0.54,-0.99,-0.8130589836455488
-0.53,-0.99,-0.80544499009976
-0.52,-0.99,-0.7946522731508616
-0.51,-0.99,-0.7807234267219276
-0.5,-0.99,-0.7637134216063277
-0.49,-0.99,-0.743689388523121
-0.48,-0.99,-0.7207303531827773
-0.47,-0.99,-0.6949269244087983
-0.45999999999999996,-0.99,-0.6663809365460904
-0.44999999999999996,-0.99,-0.6352050475673268
-0.43999999999999995,-0.99,-0.6015222944633964
-0.42999999999999994,-0.99,-0.5654656076726152
-0.42000000000000004,-0.99,-0.5271772864650132
-0.41000000000000003,-0.99,-0.48680843735212653
-0.4,-0.99,-0.4445183777386305
-0.39,-0.99,-0.40047400716933
-0.38,-0.99,-0.3548491486529023
-0.37,-0.99,-0.307823862661897
-0.36,-0.99,-0.25958373651631106
-0.35,-0.99,-0.21031915195522352
-0.33999999999999997,-0.99,-0.16022453378704976
-0.32999999999999996,-0.99,-0.10949758258364502
-0.31999999999999995,-0.99,-0.058338494446469644
-0.30999999999999994,-0.99,-0.006949170924037039
-0.29999999999999993,-0.99,0.04446757780125869
-0.29000000000000004,-0.99,0.09570883331227659
-0.28,-0.99,0.14657236978341778
-0.27,-0.99,0.19685745207356986
-0.26,-0.99,0.24636562793600292
-0.25,-0.99,0.29490151121872127
-0.24,-0.99,0.3422735529643445
-0.22999999999999998,-0.99,0.38829479736632966
-0.21999999999999997,-0.99,0.4327836195981286
-0.20999999999999996,-0.99,0.47556444260340247
-0.19999999999999996,-0.99,0.5164684300184477
-0.18999999999999995,-0.99,0.555334152492192
-0.17999999999999994,-0.99,0.5920082247740903
-0.16999999999999993,-0.99,0.6263459110556361
-0.16000000000000003,-0.99,0.6582116961764741
-0.15000000000000002,-0.99,0.6874798204408229
-0.14,-0.99,0.7140347759335464
-0.13,-0.99,0.7377717623771191
-0.12,-0.99,0.7585971007304466
-0.10999999999999999,-0.99,0.7764286028972404
-0.09999999999999998,-0.99,0.791195896084886
-0.08999999999999997,-0.99,0.8028407005337062
-0.07999999999999996,-0.99,0.8113170595205479
-0.06999999999999995,-0.99,0.8165915207289686
-0.05999999999999994,-0.99,0.8186432682702511
-0.04999999999999993,-0.99,0.8174642048342053
-0.040000000000000036,-0.99,0.8130589836455486
-0.030000000000000027,-0.99,0.8054449900997604
-0.020000000000000018,-0.99,0.7946522731508618
-0.010000000000000009,-0.99,0.7807234267219274
0.0,-0.99,0.7637134216063274
0.010000000000000009,-0.99,0.7436893885231213
0.020000000000000018,-0.99,0.7207303531827776
0.030000000000000027,-0.99,0.6949269244087988
0.040000000000000036,-0.99,0.6663809365460907
0.050000000000000044,-0.99,0.6352050475673265
0.06000000000000005,-0.99,0.6015222944633967
0.07000000000000006,-0.99,0.5654656076726156
0.08000000000000007,-0.99,0.5271772864650134
0.09000000000000008,-0.99,0.4868084373521264
0.10000000000000009,-0.99,0.4445183777386307
0.1100000000000001,-0.99,0.4004740071693299
0.1200000000000001,-0.99,0.35484914865290235
0.13000000000000012,-0.99,0.307823862661897
0.14000000000000012,-0.99,0.25958373651631095
0.15000000000000013,-0.99,0.2103191519552236
0.15999999999999992,-0.99,0.16022453378704965
0.16999999999999993,-0.99,0.10949758258364492
0.17999999999999994,-0.99,0.058338494446469574
0.18999999999999995,-0.99,0.006949170924036945
0.19999999999999996,-0.99,-0.044467577801258734
0.20999999999999996,-0.99,-0.09570883331227667
0.21999999999999997,-0.99,-0.14657236978341787
0.22999999999999998,-0.99,-0.19685745207357003
0.24,-0.99,-0.24636562793600264
0.25,-0.99,-0.2949015112187213
0.26,-0.99,-0.3422735529643445
0.27,-0.99,-0.38829479736632966
0.28,-0.99,-0.43278361959812855
0.29000000000000004,-0.99,-0.4755644426034023
0.30000000000000004,-0.99,-0.5164684300184479
0.31000000000000005,-0.99,-0.5553341524921915
0.32000000000000006,-0.99,-0.5920082247740903
0.33000000000000007,-0.99,-0.6263459110556366
0.3400000000000001,-0.99,-0.6582116961764739
0.3500000000000001,-0.99,-0.6874798204408228
0.3600000000000001,-0.99,-0.7140347759335464
0.3700000000000001,-0.99,-0.7377717623771193
0.3800000000000001,-0.99,-0.7585971007304464
0.3900000000000001,-0.99,-0.7764286028972401
0.40000000000000013,-0.99,-0.7911958960848859
0.4099999999999999,-0.99,-0.8028407005337067
0.41999999999999993,-0.99,-0.8113170595205472
0.42999999999999994,-0.99,-0.8165915207289685
0.43999999999999995,-0.99,-0.8186432682702511
0.44999999999999996,-0.99,-0.8174642048342049
0.45999999999999996,-0.99,-0.8130589836455484
0.47,-0.99,-0.8054449900997602
0.48,-0.99,-0.7946522731508618
0.49,-0.99,-0.7807234267219276
0.5,-0.99,-0.7637134216063277
0.51,-0.99,-0.7436893885231213
0.52,-0.99,-0.7207303531827775
0.53,-0.99,-0.6949269244087983
0.54,-0.99,-0.6663809365460908
0.55,-0.99,-0.6352050475673268
0.56,-0.99,-0.6015222944633967
0.5700000000000001,-0.99,-0.5654656076726151
0.5800000000000001,-0.99,-0.5271772864650136
0.5900000000000001,-0.99,-0.48680843735212637
0.6000000000000001,-0.99,-0.4445183777386304
0.6100000000000001,-0.99,-0.40047400716932957
0.6200000000000001,-0.99,-0.35484914865290207
0.6300000000000001,-0.99,-0.3078238626618968
0.6400000000000001,-0.99,-0.25958373651631095
0.6500000000000001,-0.99,-0.2103191519552236
0.6600000000000001,-0.99,-0.1602245337870497
0.6699999999999999,-0.99,-0.10949758258364486
0.6799999999999999,-0.99,-0.05833849444646952
0.69,-0.99,-0.006949170924036888
0.7,-0.99,0.044467577801258776
0.71,-0.99,0.09570883331227667
0.72,-0.99,0.1465723697834178
0.73,-0.99,0.19685745207356994
0.74,-0.99,0.2463656279360027
0.75,-0.99,0.2949015112187212
0.76,-0.99,0.34227355296434464
0.77,-0.99,0.3882947973663297
0.78,-0.99,0.4327836195981289
0.79,-0.99,0.47556444260340264
0.8,-0.99,0.5164684300184478
0.81,-0.99,0.5553341524921918
0.8200000000000001,-0.99,0.5920082247740903
0.8300000000000001,-0.99,0.6263459110556364
0.8400000000000001,-0.99,0.6582116961764739
0.8500000000000001,-0.99,0.687479820440823
0.8600000000000001,-0.99,0.7140347759335461
0.8700000000000001,-0.99,0.7377717623771192
0.8800000000000001,-0.99,0.7585971007304468
0.8900000000000001,-0.99,0.7764286028972402
0.9000000000000001,-0.99,0.7911958960848858
0.9100000000000001,-0.99,0.8028407005337065
0.9199999999999999,-0.99,0.8113170595205477
0.9299999999999999,-0.99,0.8165915207289682
0.94,-0.99,0.8186432682702514
0.95,-0.99,0.8174642048342047
0.96,-0.99,0.8130589836455486
0.97,-0.99,0.8054449900997602
0.98,-0.99,0.7946522731508618
0.99,-0.99,0.7807234267219277
1.0,-0.99,0.7637134216063277

-1.0,-0.98,0.7406992432451599
-0.99,-0.98,0.7207303531827772
-0.98,-0.98,0.6979170696867605
-0.97,-0.98,0.6723494263646699
-0.96,-0.98,0.644128327023952
-0.95,-0.98,0.613365147450712
-0.94,-0.98,0.5801812958603647
-0.9299999999999999,-0.98,0.5447077337548778
-0.92,-0.98,0.5070844590775531
-0.91,-0.98,0.46745995370510174
-0.9,-0.98,0.4259905974575151
-0.89,-0.98,0.3828400509383555
-0.88,-0.98,0.33817860964112423
-0.87,-0.98,0.29218253187075016
-0.86,-0.98,0.24503334313258357
-0.85,-0.98,0.19691711973415899
-0.84,-0.98,0.1480237544270181
-0.83,-0.98,0.09854620698677459
-0.8200000000000001,-0.98,0.048679742689033724
-0.81,-0.98,-0.0013788383134418977
-0.8,-0.98,-0.05143197767102562
-0.79,-0.98,-0.1012821385097772
-0.78,-0.98,-0.15073258501923859
-0.77,-0.98,-0.19958815887879666
-0.76,-0.98,-0.24765604945841643
-0.75,-0.98,-0.2947465547541104
-0.74,-0.98,-0.34067383005508206
-0.73,-0.98,-0.38525662138789496
-0.72,-0.98,-0.4283189808430975
-0.71,-0.98,-0.4696909609612416
-0.7,-0.98,-0.5092092854378605
-0.69,-0.98,-0.5467179935004497
-0.6799999999999999,-0.98,-0.5820690554143855
-0.6699999999999999,-0.98,-0.6151229566886572
-0.6599999999999999,-0.98,-0.6457492486758265
-0.6499999999999999,-0.98,-0.6738270633932414
-0.64,-0.98,-0.6992455905337462
-0.63,-0.98,-0.7219045147833372
-0.62,-0.98,-0.7417144117198803
-0.61,-0.98,-0.7585971007304466
-0.6,-0.98,-0.7724859535544792
-0.59,-0.98,-0.7833261572350942
-0.5800000000000001,-0.98,-0.7910749304407828
-0.5700000000000001,-0.98,-0.79570169230378
-0.56,-0.98,-0.7971881831087786
-0.55,-0.98,-0.7955285363556841
-0.54,-0.98,-0.7907293019120107
-0.53,-0.98,-0.7828094201635464
-0.52,-0.98,-0.7718001472653022
-0.51,-0.98,-0.757744931787749
-0.5,-0.98,-0.7406992432451596
-0.49,-0.98,-0.7207303531827773
-0.48,-0.98,-0.69791706968676
-0.47,-0.98,-0.6723494263646694
-0.45999999999999996,-0.98,-0.6441283270239522
-0.44999999999999996,-0.98,-0.6133651474507118
-0.43999999999999995,-0.98,-0.5801812958603647
-0.42999999999999994,-0.98,-0.5447077337548779
-0.42000000000000004,-0.98,-0.507084459077553
-0.41000000000000003,-0.98,-0.4674599537051016
-0.4,-0.98,-0.42599059745751533
-0.39,-0.98,-0.3828400509383555
-0.38,-0.98,-0.3381786096411242
-0.37,-0.98,-0.29218253187075005
-0.36,-0.98,-0.24503334313258346
-0.35,-0.98,-0.1969171197341589
-0.33999999999999997,-0.98,-0.1480237544270181
-0.32999999999999996,-0.98,-0.09854620698677449
-0.31999999999999995,-0.98,-0.04867974268903368
-0.30999999999999994,-0.98,0.0013788383134419723
-0.29999999999999993,-0.98,0.05143197767102562
-0.29000000000000004,-0.98,0.10128213850977738
-0.28,-0.98,0.15073258501923859
-0.27,-0.98,0.19958815887879683
-0.26,-0.98,0.2476560494584165
-0.25,-0.98,0.2947465547541105
-0.24,-0.98,0.34067383005508217
-0.22999999999999998,-0.98,0.3852566213878946
-0.21999999999999997,-0.98,0.4283189808430976
-0.20999999999999996,-0.98,0.46969096096124163
-0.19999999999999996,-0.98,0.5092092854378607
-0.18999999999999995,-0.98,0.5467179935004498
-0.17999999999999994,-0.98,0.5820690554143853
-0.16999999999999993,-0.98,0.6151229566886574
-0.16000000000000003,-0.98,0.6457492486758263
-0.15000000000000002,-0.98,0.6738270633932416
-0.14,-0.98,0.6992455905337462
-0.13,-0.98,0.7219045147833374
-0.12,-0.98,0.7417144117198804
-0.10999999999999999,-0.98,0.758597100730447
-0.09999999999999998,-0.98,0.7724859535544789
-0.08999999999999997,-0.98,0.7833261572350945
-0.07999999999999996,-0.98,0.7910749304407833
-0.06999999999999995,-0.98,0.79570169230378
-0.05999999999999994,-0.98,0.7971881831087788
-0.04999999999999993,-0.98,0.7955285363556839
-0.040000000000000036,-0.98,0.7907293019120111
-0.030000000000000027,-0.98,0.7828094201635465
-0.020000000000000018,-0.98,0.771800147265302
-0.010000000000000009,-0.98,0.7577449317877487
0.0,-0.98,0.7406992432451596
0.010000000000000009,-0.98,0.7207303531827775
0.020000000000000018,-0.98,0.6979170696867605
0.030000000000000027,-0.98,0.6723494263646692
0.040000000000000036,-0.98,0.6441283270239518
0.050000000000000044,-0.98,0.6133651474507122
0.06000000000000005,-0.98,0.5801812958603648
0.07000000000000006,-0.98,0.5447077337548779
0.08000000000000007,-0.98,0.507084459077553
0.09000000000000008,-0.98,0.46745995370510185
0.10000000000000009,-0.98,0.4259905974575152
0.1100000000000001,-0.98,0.38284005093835555
0.1200000000000001,-0.98,0.3381786096411243
0.13000000000000012,-0.98,0.2921825318707501
0.14000000000000012,-0.98,0.24503334313258357
0.15000000000000013,-0.98,0.19691711973415876
0.15999999999999992,-0.98,0.14802375442701796
0.16999999999999993,-0.98,0.09854620698677442
0.17999999999999994,-0.98,0.04867974268903357
0.18999999999999995,-0.98,-0.0013788383134420348
0.19999999999999996,-0.98,-0.051431977671025704
0.20999999999999996,-0.98,-0.10128213850977746
0.21999999999999997,-0.98,-0.15073258501923875
0.22999999999999998,-0.98,-0.1995881588787967
0.24,-0.98,-0.24765604945841652
0.25,-0.98,-0.29474655475411055
0.26,-0.98,-0.3406738300550821
0.27,-0.98,-0.3852566213878946
0.28,-0.98,-0.4283189808430975
0.29000000000000004,-0.98,-0.4696909609612417
0.30000000000000004,-0.98,-0.5092092854378603
0.31000000000000005,-0.98,-0.5467179935004498
0.32000000000000006,-0.98,-0.5820690554143857
0.33000000000000007,-0.98,-0.6151229566886571
0.3400000000000001,-0.98,-0.6457492486758262
0.3500000000000001,-0.98,-0.6738270633932414
0.3600000000000001,-0.98,-0.6992455905337462
0.3700000000000001,-0.98,-0.7219045147833373
0.3800000000000001,-0.98,-0.7417144117198802
0.3900000000000001,-0.98,-0.7585971007304468
0.40000000000000013,-0.98,-0.7724859535544795
0.4099999999999999,-0.98,-0.7833261572350941
0.41999999999999993,-0.98,-0.7910749304407831
0.42999999999999994,-0.98,-0.7957016923037801
0.43999999999999995,-0.98,-0.7971881831087785
0.44999999999999996,-0.98,-0.7955285363556837
0.45999999999999996,-0.98,-0.790729301912011
0.47,-0.98,-0.7828094201635465
0.48,-0.98,-0.7718001472653022
0.49,-0.98,-0.7577449317877489
0.5,-0.98,-0.7406992432451596
0.51,-0.98,-0.7207303531827773
0.52,-0.98,-0.6979170696867599
0.53,-0.98,-0.6723494263646694
0.54,-0.98,-0.6441283270239522
0.55,-0.98,-0.613365147450712
0.56,-0.98,-0.5801812958603643
0.5700000000000001,-0.98,-0.5447077337548782
0.5800000000000001,-0.98,-0.5070844590775527
0.5900000000000001,-0.98,-0.4674599537051016
0.6000000000000001,-0.98,-0.42599059745751483
0.6100000000000001,-0.98,-0.38284005093835527
0.6200000000000001,-0.98,-0.3381786096411241
0.6300000000000001,-0.98,-0.29218253187075005
0.6400000000000001,-0.98,-0.2450333431325836
0.6500000000000001,-0.98,-0.19691711973415887
0.6600000000000001,-0.98,-0.1480237544270179
0.6699999999999999,-0.98,-0.09854620698677435
0.6799999999999999,-0.98,-0.048679742689033495
0.69,-0.98,0.001378838313442059
0.7,-0.98,0.051431977671025704
0.71,-0.98,0.10128213850977741
0.72,-0.98,0.15073258501923867
0.73,-0.98,0.1995881588787967
0.74,-0.98,0.24765604945841652
0.75,-0.98,0.2947465547541106
0.76,-0.98,0.3406738300550822
0.77,-0.98,0.38525662138789496
0.78,-0.98,0.4283189808430979
0.79,-0.98,0.4696909609612417
0.8,-0.98,0.5092092854378605
0.81,-0.98,0.5467179935004499
0.8200000000000001,-0.98,0.5820690554143854
0.8300000000000001,-0.98,0.6151229566886574
0.8400000000000001,-0.98,0.6457492486758265
0.8500000000000001,-0.98,0.6738270633932413
0.8600000000000001,-0.98,0.6992455905337462
0.8700000000000001,-0.98,0.7219045147833377
0.8800000000000001,-0.98,0.7417144117198804
0.8900000000000001,-0.98,0.7585971007304468
0.9000000000000001,-0.98,0.7724859535544792
0.9100000000000001,-0.98,0.7833261572350945
0.9199999999999999,-0.98,0.7910749304407829
0.9299999999999999,-0.98,0.7957016923037802
0.94,-0.98,0.7971881831087781
0.95,-0.98,0.7955285363556839
0.96,-0.98,0.790729301912011
0.97,-0.98,0.7828094201635465
0.98,-0.98,0.7718001472653022
0.99,-0.98,0.7577449317877489
1.0,-0.98,0.7406992432451599

-1.0,-0.97,0.7147618633641986
-0.99,-0.97,0.6949269244087988
-0.98,-0.97,0.6723494263646699
-0.97,-0.97,0.6471184723019137
-0.96,-0.97,0.6193336372692906
-0.95,-0.97,0.5891045753169901
-0.94,-0.97,0.5565505867421932
-0.9299999999999999,-0.97,0.5218001472653025
-0.92,-0.97,0.4849904009949664
-0.91,-0.97,0.44626661918294147
-0.9,-0.97,0.4057816269048266
-0.89,-0.97,0.36369519992930954
-0.88,-0.97,0.3201734341562034
-0.87,-0.97,0.27538809011181087
-0.86,-0.97,0.22951591508859814
-0.85,-0.97,0.182737945604378
-0.84,-0.97,0.13523879293388372
-0.83,-0.97,0.08720591453240677
-0.8200000000000001,-0.97,0.038828874226862965
-0.81,-0.97,-0.009701405906028972
-0.8,-0.97,-0.058193399021960496
-0.79,-0.97,-0.1064557293779876
-0.78,-0.97,-0.15429792760515623
-0.77,-0.97,-0.20153118240408513
-0.76,-0.97,-0.2479690856969044
-0.75,-0.97,-0.2934283682947773
-0.74,-0.97,-0.3377296231776609
-0.73,-0.97,-0.3806980135318501
-0.72,-0.97,-0.42216396275100765
-0.71,-0.97,-0.46196382367755573
-0.7,-0.97,-0.49994052444324366
-0.69,-0.97,-0.5359441883600542
-0.6799999999999999,-0.97,-0.5698327254150171
-0.6699999999999999,-0.97,-0.6014723930345756
-0.6599999999999999,-0.97,-0.6307383239054247
-0.6499999999999999,-0.97,-0.6575150187687497
-0.64,-0.97,-0.6816968022430323
-0.63,-0.97,-0.7031882398765072
-0.62,-0.97,-0.7219045147833375
-0.61,-0.97,-0.7377717623771192
-0.6,-0.97,-0.7507273618806554
-0.59,-0.97,-0.7607201834615556
-0.5800000000000001,-0.97,-0.7677107900183269
-0.5700000000000001,-0.97,-0.7716715928205934
-0.56,-0.97,-0.7725869603892129
-0.55,-0.97,-0.7704532801865844
-0.54,-0.97,-0.7652789728736817
-0.53,-0.97,-0.7570844590775528
-0.52,-0.97,-0.7459020788004336
-0.51,-0.97,-0.7317759637885343
-0.5,-0.97,-0.7147618633641988
-0.49,-0.97,-0.6949269244087984
-0.48,-0.97,-0.6723494263646692
-0.47,-0.97,-0.6471184723019137
-0.45999999999999996,-0.97,-0.6193336372692905
-0.44999999999999996,-0.97,-0.5891045753169901
-0.43999999999999995,-0.97,-0.5565505867421933
-0.42999999999999994,-0.97,-0.5218001472653023
-0.42000000000000004,-0.97,-0.48499040099496626
-0.41000000000000003,-0.97,-0.44626661918294175
-0.4,-0.97,-0.40578162690482655
-0.39,-0.97,-0.36369519992930943
-0.38,-0.97,-0.3201734341562033
-0.37,-0.97,-0.2753880901118107
-0.36,-0.97,-0.22951591508859803
-0.35,-0.97,-0.182737945604378
-0.33999999999999997,-0.97,-0.1352387929338836
-0.32999999999999996,-0.97,-0.08720591453240677
-0.31999999999999995,-0.97,-0.03882887422686288
-0.30999999999999994,-0.97,0.009701405906029
-0.29999999999999993,-0.97,0.058193399021960655
-0.29000000000000004,-0.97,0.10645572937798761
-0.28,-0.97,0.1542979276051564
-0.27,-0.97,0.20153118240408519
-0.26,-0.97,0.24796908569690448
-0.25,-0.97,0.29342836829477736
-0.24,-0.97,0.33772962317766064
-0.22999999999999998,-0.97,0.38069801353185007
-0.21999999999999997,-0.97,0.42216396275100776
-0.20999999999999996,-0.97,0.4619638236775558
-0.19999999999999996,-0.97,0.4999405244432438
-0.18999999999999995,-0.97,0.5359441883600542
-0.17999999999999994,-0.97,0.5698327254150168
-0.16999999999999993,-0.97,0.6014723930345753
-0.16000000000000003,-0.97,0.630738323905425
-0.15000000000000002,-0.97,0.6575150187687496
-0.14,-0.97,0.6816968022430326
-0.13,-0.97,0.7031882398765072
-0.12,-0.97,0.7219045147833378
-0.10999999999999999,-0.97,0.7377717623771191
-0.09999999999999998,-0.97,0.7507273618806554
-0.08999999999999997,-0.97,0.760720183461556
-0.07999999999999996,-0.97,0.7677107900183268
-0.06999999999999995,-0.97,0.7716715928205936
-0.05999999999999994,-0.97,0.7725869603892127
-0.04999999999999993,-0.97,0.7704532801865849
-0.040000000000000036,-0.97,0.7652789728736817
-0.030000000000000027,-0.97,0.7570844590775526
-0.020000000000000018,-0.97,0.7459020788004334
-0.010000000000000009,-0.97,0.7317759637885343
0.0,-0.97,0.7147618633641988
0.010000000000000009,-0.97,0.6949269244087988
0.020000000000000018,-0.97,0.6723494263646694
0.030000000000000027,-0.97,0.6471184723019135
0.040000000000000036,-0.97,0.6193336372692907
0.050000000000000044,-0.97,0.5891045753169901
0.06000000000000005,-0.97,0.5565505867421933
0.07000000000000006,-0.97,0.5218001472653022
0.08000000000000007,-0.97,0.48499040099496643
0.09000000000000008,-0.97,0.4462666191829416
0.10000000000000009,-0.97,0.40578162690482666
0.1100000000000001,-0.97,0.36369519992930954
0.1200000000000001,-0.97,0.3201734341562033
0.13000000000000012,-0.97,0.27538809011181087
0.14000000000000012,-0.97,0.2295159150885979
0.15000000000000013,-0.97,0.1827379456043779
0.15999999999999992,-0.97,0.13523879293388358
0.16999999999999993,-0.97,0.08720591453240663
0.17999999999999994,-0.97,0.03882887422686281
0.18999999999999995,-0.97,-0.009701405906029071
0.19999999999999996,-0.97,-0.05819339902196073
0.20999999999999996,-0.97,-0.10645572937798777
0.21999999999999997,-0.97,-0.1542979276051563
0.22999999999999998,-0.97,-0.20153118240408527
0.24,-0.97,-0.24796908569690454
0.25,-0.97,-0.29342836829477725
0.26,-0.97,-0.33772962317766064
0.27,-0.97,-0.38069801353184995
0.28,-0.97,-0.42216396275100776
0.29000000000000004,-0.97,-0.46196382367755556
0.30000000000000004,-0.97,-0.4999405244432438
0.31000000000000005,-0.97,-0.5359441883600545
0.32000000000000006,-0.97,-0.5698327254150166
0.33000000000000007,-0.97,-0.6014723930345751
0.3400000000000001,-0.97,-0.6307383239054246
0.3500000000000001,-0.97,-0.6575150187687496
0.3600000000000001,-0.97,-0.6816968022430325
0.3700000000000001,-0.97,-0.7031882398765072
0.3800000000000001,-0.97,-0.7219045147833376
0.3900000000000001,-0.97,-0.7377717623771195
0.40000000000000013,-0.97,-0.750727361880655
0.4099999999999999,-0.97,-0.7607201834615558
0.41999999999999993,-0.97,-0.7677107900183268
0.42999999999999994,-0.97,-0.771671592820593
0.43999999999999995,-0.97,-0.7725869603892126
0.44999999999999996,-0.97,-0.7704532801865848
0.45999999999999996,-0.97,-0.7652789728736817
0.47,-0.97,-0.7570844590775528
0.48,-0.97,-0.7459020788004336
0.49,-0.97,-0.7317759637885343
0.5,-0.97,-0.7147618633641988
0.51,-0.97,-0.6949269244087983
0.52,-0.97,-0.6723494263646692
0.53,-0.97,-0.6471184723019137
0.54,-0.97,-0.6193336372692906
0.55,-0.97,-0.5891045753169897
0.56,-0.97,-0.5565505867421936
0.5700000000000001,-0.97,-0.5218001472653021
0.5800000000000001,-0.97,-0.4849904009949664
0.5900000000000001,-0.97,-0.4462666191829412
0.6000000000000001,-0.97,-0.4057816269048264
0.6100000000000001,-0.97,-0.36369519992930943
0.6200000000000001,-0.97,-0.3201734341562033
0.6300000000000001,-0.97,-0.2753880901118109
0.6400000000000001,-0.97,-0.2295159150885981
0.6500000000000001,-0.97,-0.18273794560437787
0.6600000000000001,-0.97,-0.1352387929338835
0.6699999999999999,-0.97,-0.08720591453240653