TITLE = "Solution" 
VARIABLES = "x", "y", "sol" 
ZONE STRANDID=1, SOLUTIONTIME= 0.0, I= 201, J =201, DATAPACKING=POINT 
-1.0,-1.0,5.99903913064743e-32
-0.99,-1.0,1.537924175167457e-17
-0.98,-1.0,3.069778866226266e-17
-0.97,-1.0,4.5895185425486195e-17
-0.96,-1.0,6.091145485935131e-17
-0.95,-1.0,7.568733460868305e-17
-0.94,-1.0,9.016451102656859e-17
-0.9299999999999999,-1.0,1.0428584931167886e-16
-0.92,-1.0,1.1799561899322857e-16
-0.91,-1.0,1.3123971387368258e-16
-0.9,-1.0,1.439658655611994e-16
-0.89,-1.0,1.561238497490936e-16
-0.88,-1.0,1.6766568442823062e-16
-0.87,-1.0,1.7854581925009423e-16
-0.86,-1.0,1.8872131529320365e-16
-0.85,-1.0,1.9815201452341837e-16
-0.84,-1.0,2.0680069827935363e-16
-0.83,-1.0,2.1463323415743232e-16
-0.8200000000000001,-1.0,2.21618710716889e-16
-0.81,-1.0,2.277295594731042e-16
-0.8,-1.0,2.329416636978185e-16
-0.79,-1.0,2.3723445359684063e-16
-0.78,-1.0,2.4059098748962845e-16
-0.77,-1.0,2.4299801867036155e-16
-0.76,-1.0,2.444460476866375e-16
-0.75,-1.0,2.4492935982947064e-16
-0.74,-1.0,2.444460476866375e-16
-0.73,-1.0,2.429980186703615e-16
-0.72,-1.0,2.4059098748962845e-16
-0.71,-1.0,2.372344535968406e-16
-0.7,-1.0,2.3294166369781847e-16
-0.69,-1.0,2.277295594731042e-16
-0.6799999999999999,-1.0,2.2161871071688896e-16
-0.6699999999999999,-1.0,2.1463323415743215e-16
-0.6599999999999999,-1.0,2.0680069827935348e-16
-0.6499999999999999,-1.0,1.9815201452341817e-16
-0.64,-1.0,1.8872131529320357e-16
-0.63,-1.0,1.7854581925009418e-16
-0.62,-1.0,1.6766568442823057e-16
-0.61,-1.0,1.561238497490936e-16
-0.6,-1.0,1.439658655611993e-16
-0.59,-1.0,1.312397138736826e-16
-0.5800000000000001,-1.0,1.179956189932286e-16
-0.5700000000000001,-1.0,1.0428584931167877e-16
-0.56,-1.0,9.016451102656849e-17
-0.55,-1.0,7.568733460868307e-17
-0.54,-1.0,6.091145485935123e-17
-0.53,-1.0,4.589518542548622e-17
-0.52,-1.0,3.069778866226257e-17
-0.51,-1.0,1.5379241751674593e-17
-0.5,-1.0,-2.999519565323715e-32
-0.49,-1.0,-1.537924175167465e-17
-0.48,-1.0,-3.0697788662262633e-17
-0.47,-1.0,-4.589518542548628e-17
-0.45999999999999996,-1.0,-6.091145485935129e-17
-0.44999999999999996,-1.0,-7.568733460868313e-17
-0.43999999999999995,-1.0,-9.016451102656856e-17
-0.42999999999999994,-1.0,-1.0428584931167884e-16
-0.42000000000000004,-1.0,-1.1799561899322854e-16
-0.41000000000000003,-1.0,-1.3123971387368266e-16
-0.4,-1.0,-1.4396586556119935e-16
-0.39,-1.0,-1.5612384974909368e-16
-0.38,-1.0,-1.676656844282306e-16
-0.37,-1.0,-1.785458192500942e-16
-0.36,-1.0,-1.8872131529320355e-16
-0.35,-1.0,-1.9815201452341832e-16
-0.33999999999999997,-1.0,-2.0680069827935355e-16
-0.32999999999999996,-1.0,-2.146332341574323e-16
-0.31999999999999995,-1.0,-2.2161871071688906e-16
-0.30999999999999994,-1.0,-2.277295594731043e-16
-0.29999999999999993,-1.0,-2.329416636978185e-16
-0.29000000000000004,-1.0,-2.3723445359684063e-16
-0.28,-1.0,-2.405909874896284e-16
-0.27,-1.0,-2.429980186703615e-16
-0.26,-1.0,-2.444460476866375e-16
-0.25,-1.0,-2.4492935982947064e-16
-0.24,-1.0,-2.444460476866375e-16
-0.22999999999999998,-1.0,-2.429980186703615e-16
-0.21999999999999997,-1.0,-2.405909874896284e-16
-0.20999999999999996,-1.0,-2.3723445359684063e-16
-0.19999999999999996,-1.0,-2.3294166369781847e-16
-0.18999999999999995,-1.0,-2.277295594731042e-16
-0.17999999999999994,-1.0,-2.2161871071688896e-16
-0.16999999999999993,-1.0,-2.1463323415743222e-16
-0.16000000000000003,-1.0,-2.0680069827935353e-16
-0.15000000000000002,-1.0,-1.9815201452341832e-16
-0.14,-1.0,-1.8872131529320355e-16
-0.13,-1.0,-1.7854581925009423e-16
-0.12,-1.0,-1.6766568442823052e-16
-0.10999999999999999,-1.0,-1.561238497490936e-16
-0.09999999999999998,-1.0,-1.439658655611993e-16
-0.08999999999999997,-1.0,-1.312397138736826e-16
-0.07999999999999996,-1.0,-1.179956189932285e-16
-0.06999999999999995,-1.0,-1.042858493116787e-16
-0.05999999999999994,-1.0,-9.016451102656833e-17
-0.04999999999999993,-1.0,-7.56873346086829e-17
-0.040000000000000036,-1.0,-6.091145485935123e-17
-0.030000000000000027,-1.0,-4.589518542548622e-17
-0.020000000000000018,-1.0,-3.069778866226259e-17
-0.010000000000000009,-1.0,-1.537924175167461e-17
0.0,-1.0,0.0
0.010000000000000009,-1.0,1.537924175167461e-17
0.020000000000000018,-1.0,3.069778866226259e-17
0.030000000000000027,-1.0,4.589518542548622e-17
0.040000000000000036,-1.0,6.091145485935123e-17
0.050000000000000044,-1.0,7.568733460868306e-17
0.06000000000000005,-1.0,9.016451102656848e-17
0.07000000000000006,-1.0,1.0428584931167886e-16
0.08000000000000007,-1.0,1.1799561899322866e-16
0.09000000000000008,-1.0,1.3123971387368276e-16
0.10000000000000009,-1.0,1.4396586556119945e-16
0.1100000000000001,-1.0,1.5612384974909375e-16
0.1200000000000001,-1.0,1.6766568442823064e-16
0.13000000000000012,-1.0,1.7854581925009433e-16
0.14000000000000012,-1.0,1.8872131529320367e-16
0.15000000000000013,-1.0,1.9815201452341844e-16
0.15999999999999992,-1.0,2.0680069827935346e-16
0.16999999999999993,-1.0,2.1463323415743222e-16
0.17999999999999994,-1.0,2.2161871071688896e-16
0.18999999999999995,-1.0,2.277295594731042e-16
0.19999999999999996,-1.0,2.3294166369781847e-16
0.20999999999999996,-1.0,2.3723445359684063e-16
0.21999999999999997,-1.0,2.405909874896284e-16
0.22999999999999998,-1.0,2.429980186703615e-16
0.24,-1.0,2.444460476866375e-16
0.25,-1.0,2.4492935982947064e-16
0.26,-1.0,2.444460476866375e-16
0.27,-1.0,2.429980186703615e-16
0.28,-1.0,2.405909874896284e-16
0.29000000000000004,-1.0,2.3723445359684063e-16
0.30000000000000004,-1.0,2.3294166369781847e-16
0.31000000000000005,-1.0,2.2772955947310426e-16
0.32000000000000006,-1.0,2.2161871071688898e-16
0.33000000000000007,-1.0,2.1463323415743224e-16
0.3400000000000001,-1.0,2.068006982793535e-16
0.3500000000000001,-1.0,1.9815201452341827e-16
0.3600000000000001,-1.0,1.8872131529320347e-16
0.3700000000000001,-1.0,1.7854581925009413e-16
0.3800000000000001,-1.0,1.6766568442823042e-16
0.3900000000000001,-1.0,1.561238497490935e-16
0.40000000000000013,-1.0,1.4396586556119918e-16
0.4099999999999999,-1.0,1.3123971387368276e-16
0.41999999999999993,-1.0,1.1799561899322864e-16
0.42999999999999994,-1.0,1.0428584931167884e-16
0.43999999999999995,-1.0,9.016451102656856e-17
0.44999999999999996,-1.0,7.568733460868313e-17
0.45999999999999996,-1.0,6.091145485935129e-17
0.47,-1.0,4.589518542548628e-17
0.48,-1.0,3.0697788662262633e-17
0.49,-1.0,1.537924175167465e-17
0.5,-1.0,2.999519565323715e-32
0.51,-1.0,-1.5379241751674593e-17
0.52,-1.0,-3.069778866226257e-17
0.53,-1.0,-4.589518542548622e-17
0.54,-1.0,-6.091145485935123e-17
0.55,-1.0,-7.568733460868307e-17
0.56,-1.0,-9.016451102656849e-17
0.5700000000000001,-1.0,-1.0428584931167877e-16
0.5800000000000001,-1.0,-1.179956189932286e-16
0.5900000000000001,-1.0,-1.3123971387368268e-16
0.6000000000000001,-1.0,-1.439658655611994e-16
0.6100000000000001,-1.0,-1.561238497490937e-16
0.6200000000000001,-1.0,-1.6766568442823064e-16
0.6300000000000001,-1.0,-1.785458192500943e-16
0.6400000000000001,-1.0,-1.8872131529320357e-16
0.6500000000000001,-1.0,-1.9815201452341844e-16
0.6600000000000001,-1.0,-2.0680069827935358e-16
0.6699999999999999,-1.0,-2.1463323415743215e-16
0.6799999999999999,-1.0,-2.2161871071688896e-16
0.69,-1.0,-2.277295594731042e-16
0.7,-1.0,-2.3294166369781847e-16
0.71,-1.0,-2.372344535968406e-16
0.72,-1.0,-2.4059098748962845e-16
0.73,-1.0,-2.429980186703615e-16
0.74,-1.0,-2.444460476866375e-16
0.75,-1.0,-2.4492935982947064e-16
0.76,-1.0,-2.444460476866375e-16
0.77,-1.0,-2.4299801867036155e-16
0.78,-1.0,-2.4059098748962845e-16
0.79,-1.0,-2.3723445359684063e-16
0.8,-1.0,-2.329416636978185e-16
0.81,-1.0,-2.277295594731042e-16
0.8200000000000001,-1.0,-2.21618710716889e-16
0.8300000000000001,-1.0,-2.1463323415743222e-16
0.8400000000000001,-1.0,-2.068006982793535e-16
0.8500000000000001,-1.0,-1.9815201452341822e-16
0.8600000000000001,-1.0,-1.887213152932035e-16
0.8700000000000001,-1.0,-1.7854581925009406e-16
0.8800000000000001,-1.0,-1.6766568442823044e-16
0.8900000000000001,-1.0,-1.561238497490936e-16
0.9000000000000001,-1.0,-1.439658655611992e-16
0.9100000000000001,-1.0,-1.3123971387368258e-16
0.9199999999999999,-1.0,-1.1799561899322876e-16
0.9299999999999999,-1.0,-1.0428584931167886e-16
0.94,-1.0,-9.016451102656859e-17
0.95,-1.0,-7.568733460868305e-17
0.96,-1.0,-6.091145485935131e-17
0.97,-1.0,-4.5895185425486195e-17
0.98,-1.0,-3.069778866226266e-17
0.99,-1.0,-1.537924175167457e-17
1.0,-1.0,-5.99903913064743e-32

-1.0,-0.99,1.537924175167457e-17
-0.99,-0.99,0.00394264934276107
-0.98,-0.99,0.007869738849791452
-0.97,-0.99,0.011765770092923337
-0.96,-0.99,0.015615367216767562
-0.95,-0.99,0.019403337620189837
-0.94,-0.99,0.023114731914567026
-0.9299999999999999,-0.99,0.02673490292219388
-0.92,-0.99,0.030249563482002174
-0.91,-0.99,0.033644842834458004
-0.9,-0.99,0.03690734136311287
-0.89,-0.99,0.04002418347676787
-0.88,-0.99,0.042983068423550215
-0.87,-0.99,0.04577231883636083
-0.86,-0.99,0.048380926818107704
-0.85,-0.99,0.05079859738484646
-0.84,-0.99,0.05301578909537886
-0.83,-0.99,0.0550237517069619
-0.8200000000000001,-0.99,0.056814560708518556
-0.81,-0.99,0.0583811485950625
-0.8,-0.99,0.05971733275991148
-0.79,-0.99,0.060817839894611286
-0.78,-0.99,0.061678326800275164
-0.77,-0.99,0.062295397528205516
-0.76,-0.99,0.062666616782152
-0.75,-0.99,0.06279051952931326
-0.74,-0.99,0.062666616782152
-0.73,-0.99,0.06229539752820551
-0.72,-0.99,0.061678326800275164
-0.71,-0.99,0.06081783989461128
-0.7,-0.99,0.05971733275991147
-0.69,-0.99,0.058381148595062486
-0.6799999999999999,-0.99,0.05681456070851854
-0.6699999999999999,-0.99,0.05502375170696186
-0.6599999999999999,-0.99,0.05301578909537882
-0.6499999999999999,-0.99,0.05079859738484641
-0.64,-0.99,0.04838092681810769
-0.63,-0.99,0.04577231883636081
-0.62,-0.99,0.0429830684235502
-0.61,-0.99,0.04002418347676787
-0.6,-0.99,0.03690734136311285
-0.59,-0.99,0.03364484283445801
-0.5800000000000001,-0.99,0.030249563482002178
-0.5700000000000001,-0.99,0.02673490292219386
-0.56,-0.99,0.023114731914567
-0.55,-0.99,0.019403337620189844
-0.54,-0.99,0.015615367216767541
-0.53,-0.99,0.011765770092923343
-0.52,-0.99,0.00786973884979143
-0.51,-0.99,0.003942649342761075
-0.5,-0.99,-7.689620875837286e-18
-0.49,-0.99,-0.003942649342761091
-0.48,-0.99,-0.007869738849791445
-0.47,-0.99,-0.011765770092923358
-0.45999999999999996,-0.99,-0.015615367216767555
-0.44999999999999996,-0.99,-0.019403337620189857
-0.43999999999999995,-0.99,-0.023114731914567015
-0.42999999999999994,-0.99,-0.026734902922193875
-0.42000000000000004,-0.99,-0.030249563482002167
-0.41000000000000003,-0.99,-0.033644842834458025
-0.4,-0.99,-0.03690734136311286
-0.39,-0.99,-0.04002418347676789
-0.38,-0.99,-0.04298306842355021
-0.37,-0.99,-0.04577231883636082
-0.36,-0.99,-0.048380926818107683
-0.35,-0.99,-0.050798597384846454
-0.33999999999999997,-0.99,-0.05301578909537884
-0.32999999999999996,-0.99,-0.055023751706961894
-0.31999999999999995,-0.99,-0.05681456070851856
-0.30999999999999994,-0.99,-0.05838114859506252
-0.29999999999999993,-0.99,-0.059717332759911486
-0.29000000000000004,-0.99,-0.060817839894611286
-0.28,-0.99,-0.06167832680027516
-0.27,-0.99,-0.06229539752820551
-0.26,-0.99,-0.062666616782152
-0.25,-0.99,-0.06279051952931326
-0.24,-0.99,-0.062666616782152
-0.22999999999999998,-0.99,-0.06229539752820551
-0.21999999999999997,-0.99,-0.06167832680027516
-0.20999999999999996,-0.99,-0.060817839894611286
-0.19999999999999996,-0.99,-0.05971733275991147
-0.18999999999999995,-0.99,-0.0583811485950625
-0.17999999999999994,-0.99,-0.05681456070851854
-0.16999999999999993,-0.99,-0.055023751706961874
-0.16000000000000003,-0.99,-0.05301578909537883
-0.15000000000000002,-0.99,-0.050798597384846454
-0.14,-0.99,-0.048380926818107683
-0.13,-0.99,-0.04577231883636083
-0.12,-0.99,-0.042983068423550194
-0.10999999999999999,-0.99,-0.04002418347676787
-0.09999999999999998,-0.99,-0.03690734136311285
-0.08999999999999997,-0.99,-0.03364484283445801
-0.07999999999999996,-0.99,-0.030249563482002154
-0.06999999999999995,-0.99,-0.02673490292219384
-0.05999999999999994,-0.99,-0.02311473191456696
-0.04999999999999993,-0.99,-0.019403337620189795
-0.040000000000000036,-0.99,-0.015615367216767541
-0.030000000000000027,-0.99,-0.011765770092923343
-0.020000000000000018,-0.99,-0.007869738849791435
-0.010000000000000009,-0.99,-0.003942649342761081
0.0,-0.99,0.0
0.010000000000000009,-0.99,0.003942649342761081
0.020000000000000018,-0.99,0.007869738849791435
0.030000000000000027,-0.99,0.011765770092923343
0.040000000000000036,-0.99,0.015615367216767541
0.050000000000000044,-0.99,0.01940333762018984
0.06000000000000005,-0.99,0.023114731914566998
0.07000000000000006,-0.99,0.02673490292219388
0.08000000000000007,-0.99,0.0302495634820022
0.09000000000000008,-0.99,0.033644842834458046
0.10000000000000009,-0.99,0.03690734136311288
0.1100000000000001,-0.99,0.04002418347676791
0.1200000000000001,-0.99,0.04298306842355022
0.13000000000000012,-0.99,0.045772318836360855
0.14000000000000012,-0.99,0.04838092681810771
0.15000000000000013,-0.99,0.05079859738484648
0.15999999999999992,-0.99,0.05301578909537881
0.16999999999999993,-0.99,0.055023751706961874
0.17999999999999994,-0.99,0.05681456070851854
0.18999999999999995,-0.99,0.0583811485950625
0.19999999999999996,-0.99,0.05971733275991147
0.20999999999999996,-0.99,0.060817839894611286
0.21999999999999997,-0.99,0.06167832680027516
0.22999999999999998,-0.99,0.06229539752820551
0.24,-0.99,0.062666616782152
0.25,-0.99,0.06279051952931326
0.26,-0.99,0.062666616782152
0.27,-0.99,0.06229539752820551
0.28,-0.99,0.06167832680027516
0.29000000000000004,-0.99,0.060817839894611286
0.30000000000000004,-0.99,0.05971733275991147
0.31000000000000005,-0.99,0.05838114859506251
0.32000000000000006,-0.99,0.05681456070851855
0.33000000000000007,-0.99,0.05502375170696188
0.3400000000000001,-0.99,0.053015789095378824
0.3500000000000001,-0.99,0.05079859738484644
0.3600000000000001,-0.99,0.04838092681810766
0.3700000000000001,-0.99,0.0457723188363608
0.3800000000000001,-0.99,0.042983068423550166
0.3900000000000001,-0.99,0.040024183476767845
0.40000000000000013,-0.99,0.036907341363112814
0.4099999999999999,-0.99,0.033644842834458046
0.41999999999999993,-0.99,0.030249563482002192
0.42999999999999994,-0.99,0.026734902922193875
0.43999999999999995,-0.99,0.023114731914567015
0.44999999999999996,-0.99,0.019403337620189857
0.45999999999999996,-0.99,0.015615367216767555
0.47,-0.99,0.011765770092923358
0.48,-0.99,0.007869738849791445
0.49,-0.99,0.003942649342761091
0.5,-0.99,7.689620875837286e-18
0.51,-0.99,-0.003942649342761075
0.52,-0.99,-0.00786973884979143
0.53,-0.99,-0.011765770092923343
0.54,-0.99,-0.015615367216767541
0.55,-0.99,-0.019403337620189844
0.56,-0.99,-0.023114731914567
0.5700000000000001,-0.99,-0.02673490292219386
0.5800000000000001,-0.99,-0.030249563482002178
0.5900000000000001,-0.99,-0.03364484283445803
0.6000000000000001,-0.99,-0.03690734136311287
0.6100000000000001,-0.99,-0.040024183476767894
0.6200000000000001,-0.99,-0.04298306842355022
0.6300000000000001,-0.99,-0.04577231883636085
0.6400000000000001,-0.99,-0.04838092681810769
0.6500000000000001,-0.99,-0.05079859738484648
0.6600000000000001,-0.99,-0.053015789095378844
0.6699999999999999,-0.99,-0.05502375170696186
0.6799999999999999,-0.99,-0.05681456070851854
0.69,-0.99,-0.058381148595062486
0.7,-0.99,-0.05971733275991147
0.71,-0.99,-0.06081783989461128
0.72,-0.99,-0.061678326800275164
0.73,-0.99,-0.06229539752820551
0.74,-0.99,-0.062666616782152
0.75,-0.99,-0.06279051952931326
0.76,-0.99,-0.062666616782152
0.77,-0.99,-0.062295397528205516
0.78,-0.99,-0.061678326800275164
0.79,-0.99,-0.060817839894611286
0.8,-0.99,-0.05971733275991148
0.81,-0.99,-0.0583811485950625
0.8200000000000001,-0.99,-0.056814560708518556
0.8300000000000001,-0.99,-0.055023751706961874
0.8400000000000001,-0.99,-0.053015789095378824
0.8500000000000001,-0.99,-0.050798597384846426
0.8600000000000001,-0.99,-0.04838092681810767
0.8700000000000001,-0.99,-0.045772318836360786
0.8800000000000001,-0.99,-0.04298306842355017
0.8900000000000001,-0.99,-0.04002418347676787
0.9000000000000001,-0.99,-0.03690734136311282
0.9100000000000001,-0.99,-0.033644842834458004
0.9199999999999999,-0.99,-0.030249563482002223
0.9299999999999999,-0.99,-0.02673490292219388
0.94,-0.99,-0.023114731914567026
0.95,-0.99,-0.019403337620189837
0.96,-0.99,-0.015615367216767562
0.97,-0.99,-0.011765770092923337
0.98,-0.99,-0.007869738849791452
0.99,-0.99,-0.00394264934276107
1.0,-0.99,-1.537924175167457e-17

-1.0,-0.98,3.069778866226266e-17
-0.99,-0.98,0.007869738849791452
-0.98,-0.98,0.015708419435684542
-0.97,-0.98,0.023485106066559076
-0.96,-0.98,0.031169107713113382
-0.95,-0.98,0.038730099131334725
-0.94,-0.98,0.04613824054238401
-0.9299999999999999,-0.98,0.053364295396569464
-0.92,-0.98,0.06037974575665219
-0.91,-0.98,0.06715690484511533
-0.9,-0.98,0.0736690263112263
-0.89,-0.98,0.07989040978666345
-0.88,-0.98,0.08579650231312917
-0.87,-0.98,0.09136399524165835
-0.86,-0.98,0.09657091622120781
-0.85,-0.98,0.10139671591348705
-0.84,-0.98,0.10582234909180893
-0.83,-0.98,0.10983034980389797
-0.8200000000000001,-0.98,0.11340490030202496
-0.81,-0.98,0.1165318934684306
-0.8,-0.98,0.1191989884896744
-0.79,-0.98,0.12139565956018725
-0.78,-0.98,0.12311323742281742
-0.77,-0.98,0.1243449435824278
-0.76,-0.98,0.1250859170575194
-0.75,-0.98,0.12533323356430465
-0.74,-0.98,0.1250859170575194
-0.73,-0.98,0.12434494358242779
-0.72,-0.98,0.12311323742281742
-0.71,-0.98,0.12139565956018723
-0.7,-0.98,0.11919898848967439
-0.69,-0.98,0.11653189346843058
-0.6799999999999999,-0.98,0.11340490030202494
-0.6699999999999999,-0.98,0.10983034980389789
-0.6599999999999999,-0.98,0.10582234909180885
-0.6499999999999999,-0.98,0.10139671591348694
-0.64,-0.98,0.09657091622120778
-0.63,-0.98,0.09136399524165832
-0.62,-0.98,0.08579650231312914
-0.61,-0.98,0.07989040978666345
-0.6,-0.98,0.07366902631122625
-0.59,-0.98,0.06715690484511534
-0.5800000000000001,-0.98,0.0603797457566522
-0.5700000000000001,-0.98,0.05336429539656942
-0.56,-0.98,0.046138240542383954
-0.55,-0.98,0.03873009913133474
-0.54,-0.98,0.03116910771311334
-0.53,-0.98,0.023485106066559087
-0.52,-0.98,0.015708419435684497
-0.51,-0.98,0.007869738849791462
-0.5,-0.98,-1.534889433113133e-17
-0.49,-0.98,-0.007869738849791492
-0.48,-0.98,-0.015708419435684528
-0.47,-0.98,-0.023485106066559118
-0.45999999999999996,-0.98,-0.03116910771311337
-0.44999999999999996,-0.98,-0.038730099131334766
-0.43999999999999995,-0.98,-0.04613824054238398
-0.42999999999999994,-0.98,-0.05336429539656945
-0.42000000000000004,-0.98,-0.06037974575665218
-0.41000000000000003,-0.98,-0.06715690484511537
-0.4,-0.98,-0.07366902631122628
-0.39,-0.98,-0.07989040978666348
-0.38,-0.98,-0.08579650231312916
-0.37,-0.98,-0.09136399524165834
-0.36,-0.98,-0.09657091622120777
-0.35,-0.98,-0.10139671591348703
-0.33999999999999997,-0.98,-0.10582234909180889
-0.32999999999999996,-0.98,-0.10983034980389796
-0.31999999999999995,-0.98,-0.11340490030202498
-0.30999999999999994,-0.98,-0.11653189346843064
-0.29999999999999993,-0.98,-0.11919898848967442
-0.29000000000000004,-0.98,-0.12139565956018725
-0.28,-0.98,-0.1231132374228174
-0.27,-0.98,-0.12434494358242779
-0.26,-0.98,-0.1250859170575194
-0.25,-0.98,-0.12533323356430465
-0.24,-0.98,-0.1250859170575194
-0.22999999999999998,-0.98,-0.12434494358242779
-0.21999999999999997,-0.98,-0.1231132374228174
-0.20999999999999996,-0.98,-0.12139565956018725
-0.19999999999999996,-0.98,-0.11919898848967439
-0.18999999999999995,-0.98,-0.1165318934684306
-0.17999999999999994,-0.98,-0.11340490030202494
-0.16999999999999993,-0.98,-0.10983034980389791
-0.16000000000000003,-0.98,-0.10582234909180888
-0.15000000000000002,-0.98,-0.10139671591348703
-0.14,-0.98,-0.09657091622120777
-0.13,-0.98,-0.09136399524165835
-0.12,-0.98,-0.08579650231312913
-0.10999999999999999,-0.98,-0.07989040978666345
-0.09999999999999998,-0.98,-0.07366902631122625
-0.08999999999999997,-0.98,-0.06715690484511534
-0.07999999999999996,-0.98,-0.06037974575665215
-0.06999999999999995,-0.98,-0.05336429539656938
-0.05999999999999994,-0.98,-0.04613824054238387
-0.04999999999999993,-0.98,-0.03873009913133465
-0.040000000000000036,-0.98,-0.03116910771311334
-0.030000000000000027,-0.98,-0.023485106066559087
-0.020000000000000018,-0.98,-0.015708419435684507
-0.010000000000000009,-0.98,-0.007869738849791473
0.0,-0.98,0.0
0.010000000000000009,-0.98,0.007869738849791473
0.020000000000000018,-0.98,0.015708419435684507
0.030000000000000027,-0.98,0.023485106066559087
0.040000000000000036,-0.98,0.03116910771311334
0.050000000000000044,-0.98,0.03873009913133473
0.06000000000000005,-0.98,0.04613824054238395
0.07000000000000006,-0.98,0.053364295396569464
0.08000000000000007,-0.98,0.06037974575665224
0.09000000000000008,-0.98,0.06715690484511541
0.10000000000000009,-0.98,0.07366902631122632
0.1100000000000001,-0.98,0.07989040978666352
0.1200000000000001,-0.98,0.08579650231312919
0.13000000000000012,-0.98,0.0913639952416584
0.14000000000000012,-0.98,0.09657091622120782
0.15000000000000013,-0.98,0.10139671591348709
0.15999999999999992,-0.98,0.10582234909180883
0.16999999999999993,-0.98,0.10983034980389791
0.17999999999999994,-0.98,0.11340490030202494
0.18999999999999995,-0.98,0.1165318934684306
0.19999999999999996,-0.98,0.11919898848967439
0.20999999999999996,-0.98,0.12139565956018725
0.21999999999999997,-0.98,0.1231132374228174
0.22999999999999998,-0.98,0.12434494358242779
0.24,-0.98,0.1250859170575194
0.25,-0.98,0.12533323356430465
0.26,-0.98,0.1250859170575194
0.27,-0.98,0.12434494358242779
0.28,-0.98,0.1231132374228174
0.29000000000000004,-0.98,0.12139565956018725
0.30000000000000004,-0.98,0.11919898848967439
0.31000000000000005,-0.98,0.11653189346843061
0.32000000000000006,-0.98,0.11340490030202495
0.33000000000000007,-0.98,0.10983034980389793
0.3400000000000001,-0.98,0.10582234909180886
0.3500000000000001,-0.98,0.101396715913487
0.3600000000000001,-0.98,0.09657091622120773
0.3700000000000001,-0.98,0.0913639952416583
0.3800000000000001,-0.98,0.08579650231312907
0.3900000000000001,-0.98,0.0798904097866634
0.40000000000000013,-0.98,0.07366902631122618
0.4099999999999999,-0.98,0.06715690484511541
0.41999999999999993,-0.98,0.060379745756652226
0.42999999999999994,-0.98,0.05336429539656945
0.43999999999999995,-0.98,0.04613824054238398
0.44999999999999996,-0.98,0.038730099131334766
0.45999999999999996,-0.98,0.03116910771311337
0.47,-0.98,0.023485106066559118
0.48,-0.98,0.015708419435684528
0.49,-0.98,0.007869738849791492
0.5,-0.98,1.534889433113133e-17
0.51,-0.98,-0.007869738849791462
0.52,-0.98,-0.015708419435684497
0.53,-0.98,-0.023485106066559087
0.54,-0.98,-0.03116910771311334
0.55,-0.98,-0.03873009913133474
0.56,-0.98,-0.046138240542383954
0.5700000000000001,-0.98,-0.05336429539656942
0.5800000000000001,-0.98,-0.0603797457566522
0.5900000000000001,-0.98,-0.06715690484511538
0.6000000000000001,-0.98,-0.0736690263112263
0.6100000000000001,-0.98,-0.0798904097866635
0.6200000000000001,-0.98,-0.08579650231312919
0.6300000000000001,-0.98,-0.09136399524165839
0.6400000000000001,-0.98,-0.09657091622120778
0.6500000000000001,-0.98,-0.10139671591348709
0.6600000000000001,-0.98,-0.1058223490918089
0.6699999999999999,-0.98,-0.10983034980389789
0.6799999999999999,-0.98,-0.11340490030202494
0.69,-0.98,-0.11653189346843058
0.7,-0.98,-0.11919898848967439
0.71,-0.98,-0.12139565956018723
0.72,-0.98,-0.12311323742281742
0.73,-0.98,-0.12434494358242779
0.74,-0.98,-0.1250859170575194
0.75,-0.98,-0.12533323356430465
0.76,-0.98,-0.1250859170575194
0.77,-0.98,-0.1243449435824278
0.78,-0.98,-0.12311323742281742
0.79,-0.98,-0.12139565956018725
0.8,-0.98,-0.1191989884896744
0.81,-0.98,-0.1165318934684306
0.8200000000000001,-0.98,-0.11340490030202496
0.8300000000000001,-0.98,-0.10983034980389791
0.8400000000000001,-0.98,-0.10582234909180886
0.8500000000000001,-0.98,-0.10139671591348698
0.8600000000000001,-0.98,-0.09657091622120774
0.8700000000000001,-0.98,-0.09136399524165827
0.8800000000000001,-0.98,-0.08579650231312909
0.8900000000000001,-0.98,-0.07989040978666345
0.9000000000000001,-0.98,-0.0736690263112262
0.9100000000000001,-0.98,-0.06715690484511533
0.9199999999999999,-0.98,-0.06037974575665229
0.9299999999999999,-0.98,-0.053364295396569464
0.94,-0.98,-0.04613824054238401
0.95,-0.98,-0.038730099131334725
0.96,-0.98,-0.031169107713113382
0.97,-0.98,-0.023485106066559076
0.98,-0.98,-0.015708419435684542
0.99,-0.98,-0.007869738849791452
1.0,-0.98,-3.069778866226266e-17

-1.0,-0.97,4.5895185425486195e-17
-0.99,-0.97,0.011765770092923337
-0.98,-0.97,0.023485106066559076
-0.97,-0.97,0.03511175705587432
-0.96,-0.97,0.04659983798112614
-0.95,-0.97,0.057904010635307174
-0.94,-0.97,0.06897966261333696
-0.9299999999999999,-0.97,0.07978308337684194
-0.92,-0.97,0.09027163675968221
-0.91,-0.97,0.10040392923341991
-0.9,-0.97,0.1101399732686655
-0.89,-0.97,0.11944134514758696
-0.88,-0.97,0.12827133660477105
-0.87,-0.97,0.13659509969797545
-0.86,-0.97,0.14437978433703708
-0.85,-0.97,0.1515946679281695
-0.84,-0.97,0.1582112766220055
-0.83,-0.97,0.16420349768687123
-0.8200000000000001,-0.97,0.16954768256380923
-0.81,-0.97,0.174222740196636
-0.8,-0.97,0.1782102202687056
-0.79,-0.97,0.18149438601787968
-0.78,-0.97,0.18406227634233904
-0.77,-0.97,0.18590375695213046
-0.76,-0.97,0.18701156036457958
-0.75,-0.97,0.18738131458572468
-0.74,-0.97,0.18701156036457958
-0.73,-0.97,0.18590375695213043
-0.72,-0.97,0.18406227634233904
-0.71,-0.97,0.18149438601787965
-0.7,-0.97,0.17821022026870556
-0.69,-0.97,0.174222740196636
-0.6799999999999999,-0.97,0.1695476825638092
-0.6699999999999999,-0.97,0.16420349768687112
-0.6599999999999999,-0.97,0.15821127662200535
-0.6499999999999999,-0.97,0.15159466792816936
-0.64,-0.97,0.14437978433703705
-0.63,-0.97,0.1365950996979754
-0.62,-0.97,0.12827133660477102
-0.61,-0.97,0.11944134514758696
-0.6,-0.97,0.11013997326866544
-0.59,-0.97,0.10040392923341994
-0.5800000000000001,-0.97,0.09027163675968222
-0.5700000000000001,-0.97,0.07978308337684187
-0.56,-0.97,0.06897966261333689
-0.55,-0.97,0.057904010635307195
-0.54,-0.97,0.046599837981126074
-0.53,-0.97,0.03511175705587433
-0.52,-0.97,0.02348510606655901
-0.51,-0.97,0.011765770092923353
-0.5,-0.97,-2.2947592712743097e-17
-0.49,-0.97,-0.011765770092923398
-0.48,-0.97,-0.023485106066559056
-0.47,-0.97,-0.03511175705587438
-0.45999999999999996,-0.97,-0.046599837981126116
-0.44999999999999996,-0.97,-0.057904010635307236
-0.43999999999999995,-0.97,-0.06897966261333693
-0.42999999999999994,-0.97,-0.07978308337684191
-0.42000000000000004,-0.97,-0.09027163675968218
-0.41000000000000003,-0.97,-0.10040392923341998
-0.4,-0.97,-0.11013997326866548
-0.39,-0.97,-0.119441345147587
-0.38,-0.97,-0.12827133660477105
-0.37,-0.97,-0.13659509969797543
-0.36,-0.97,-0.14437978433703702
-0.35,-0.97,-0.15159466792816947
-0.33999999999999997,-0.97,-0.15821127662200543
-0.32999999999999996,-0.97,-0.1642034976868712
-0.31999999999999995,-0.97,-0.16954768256380925
-0.30999999999999994,-0.97,-0.17422274019663608
-0.29999999999999993,-0.97,-0.1782102202687056
-0.29000000000000004,-0.97,-0.18149438601787968
-0.28,-0.97,-0.18406227634233902
-0.27,-0.97,-0.18590375695213043
-0.26,-0.97,-0.18701156036457958
-0.25,-0.97,-0.18738131458572468
-0.24,-0.97,-0.18701156036457958
-0.22999999999999998,-0.97,-0.18590375695213043
-0.21999999999999997,-0.97,-0.18406227634233902
-0.20999999999999996,-0.97,-0.18149438601787968
-0.19999999999999996,-0.97,-0.17821022026870556
-0.18999999999999995,-0.97,-0.174222740196636
-0.17999999999999994,-0.97,-0.1695476825638092
-0.16999999999999993,-0.97,-0.16420349768687115
-0.16000000000000003,-0.97,-0.1582112766220054
-0.15000000000000002,-0.97,-0.15159466792816947
-0.14,-0.97,-0.14437978433703702
-0.13,-0.97,-0.13659509969797545
-0.12,-0.97,-0.128271336604771
-0.10999999999999999,-0.97,-0.11944134514758696
-0.09999999999999998,-0.97,-0.11013997326866544
-0.08999999999999997,-0.97,-0.10040392923341994
-0.07999999999999996,-0.97,-0.09027163675968214
-0.06999999999999995,-0.97,-0.07978308337684181
-0.05999999999999994,-0.97,-0.06897966261333677
-0.04999999999999993,-0.97,-0.05790401063530706
-0.040000000000000036,-0.97,-0.046599837981126074
-0.030000000000000027,-0.97,-0.03511175705587433
-0.020000000000000018,-0.97,-0.023485106066559024
-0.010000000000000009,-0.97,-0.011765770092923369
0.0,-0.97,0.0
0.010000000000000009,-0.97,0.011765770092923369
0.020000000000000018,-0.97,0.023485106066559024
0.030000000000000027,-0.97,0.03511175705587433
0.040000000000000036,-0.97,0.046599837981126074
0.050000000000000044,-0.97,0.05790401063530719
0.06000000000000005,-0.97,0.06897966261333688
0.07000000000000006,-0.97,0.07978308337684194
0.08000000000000007,-0.97,0.09027163675968228
0.09000000000000008,-0.97,0.10040392923342004
0.10000000000000009,-0.97,0.11013997326866554
0.1100000000000001,-0.97,0.11944134514758706
0.1200000000000001,-0.97,0.12827133660477108
0.13000000000000012,-0.97,0.13659509969797554
0.14000000000000012,-0.97,0.1443797843370371
0.15000000000000013,-0.97,0.15159466792816956
0.15999999999999992,-0.97,0.15821127662200535
0.16999999999999993,-0.97,0.16420349768687115
0.17999999999999994,-0.97,0.1695476825638092
0.18999999999999995,-0.97,0.174222740196636
0.19999999999999996,-0.97,0.17821022026870556
0.20999999999999996,-0.97,0.18149438601787968
0.21999999999999997,-0.97,0.18406227634233902
0.22999999999999998,-0.97,0.18590375695213043
0.24,-0.97,0.18701156036457958
0.25,-0.97,0.18738131458572468
0.26,-0.97,0.18701156036457958
0.27,-0.97,0.18590375695213043
0.28,-0.97,0.18406227634233902
0.29000000000000004,-0.97,0.18149438601787968
0.30000000000000004,-0.97,0.17821022026870556
0.31000000000000005,-0.97,0.17422274019663603
0.32000000000000006,-0.97,0.1695476825638092
0.33000000000000007,-0.97,0.16420349768687117
0.3400000000000001,-0.97,0.15821127662200538
0.3500000000000001,-0.97,0.15159466792816945
0.3600000000000001,-0.97,0.14437978433703696
0.3700000000000001,-0.97,0.13659509969797537
0.3800000000000001,-0.97,0.1282713366047709
0.3900000000000001,-0.97,0.11944134514758688
0.40000000000000013,-0.97,0.11013997326866534
0.4099999999999999,-0.97,0.10040392923342004