TITLE = "Solution" 
VARIABLES = "x", "y", "sol" 
ZONE STRANDID=1, SOLUTIONTIME= 1.449999999999991, I= 201, J =201, DATAPACKING=POINT 
-1.0,-1.0,-0.12254038204406542
-0.99,-1.0,-0.10384490591023263
-0.98,-1.0,-0.08473960137499693
-0.97,-1.0,-0.0652998683469754
-0.96,-1.0,-0.04560242657126053
-0.95,-1.0,-0.025725012851635844
-0.94,-1.0,-0.005746074258926197
-0.9299999999999999,-1.0,0.014255541463751867
-0.92,-1.0,0.034200897077009726
-0.91,-1.0,0.05401127737440838
-0.9,-1.0,0.07360849983541569
-0.89,-1.0,0.09291522317609735
-0.88,-1.0,0.11185525257983062
-0.87,-1.0,0.13035384040343545
-0.86,-1.0,0.14833798117197278
-0.85,-1.0,0.1657366996980016
-0.84,-1.0,0.182481331188218
-0.83,-1.0,0.19850579223202483
-0.8200000000000001,-1.0,0.2137468416025617
-0.81,-1.0,0.22814432984093644
-0.8,-1.0,0.24164143663865909
-0.79,-1.0,0.2541848950814401
-0.78,-1.0,0.2657252018693672
-0.77,-1.0,0.27621681268381304
-0.76,-1.0,0.2856183219300543
-0.75,-1.0,0.2938926261462367
-0.74,-1.0,0.30100707043378916
-0.73,-1.0,0.3069335773313888
-0.72,-1.0,0.311648757623875
-0.71,-1.0,0.3151340026487936
-0.7,-1.0,0.3173755577362888
-0.69,-1.0,0.3183645764924986
-0.6799999999999999,-1.0,0.3180971557122326
-0.6699999999999999,-1.0,0.3165743507831374
-0.6599999999999999,-1.0,0.3138021715205647
-0.6499999999999999,-1.0,0.3097915584495755
-0.64,-1.0,0.3045583396276863
-0.63,-1.0,0.2981231681787572
-0.62,-1.0,0.29051144078454616
-0.61,-1.0,0.2817531974556113
-0.6,-1.0,0.27188300297711077
-0.59,-1.0,0.26093981049738857
-0.5800000000000001,-1.0,0.248966807797693
-0.5700000000000001,-1.0,0.23601124684973512
-0.56,-1.0,0.2221242573337436
-0.55,-1.0,0.20736064485297612
-0.54,-1.0,0.19177867464104137
-0.53,-1.0,0.17543984161564094
-0.52,-1.0,0.158408627686223
-0.51,-1.0,0.14075224727334557
-0.5,-1.0,0.12254038204406537
-0.49,-1.0,0.10384490591023258
-0.48,-1.0,0.08473960137499686
-0.47,-1.0,0.06529986834697538
-0.45999999999999996,-1.0,0.0456024265712605
-0.44999999999999996,-1.0,0.02572501285163581
-0.43999999999999995,-1.0,0.005746074258926193
-0.42999999999999994,-1.0,-0.01425554146375177
-0.42000000000000004,-1.0,-0.03420089707700985
-0.41000000000000003,-1.0,-0.054011277374408445
-0.4,-1.0,-0.0736084998354157
-0.39,-1.0,-0.09291522317609735
-0.38,-1.0,-0.11185525257983076
-0.37,-1.0,-0.13035384040343553
-0.36,-1.0,-0.14833798117197278
-0.35,-1.0,-0.16573669969800162
-0.33999999999999997,-1.0,-0.18248133118821802
-0.32999999999999996,-1.0,-0.1985057922320248
-0.31999999999999995,-1.0,-0.21374684160256166
-0.30999999999999994,-1.0,-0.2281443298409365
-0.29999999999999993,-1.0,-0.24164143663865897
-0.29000000000000004,-1.0,-0.25418489508144004
-0.28,-1.0,-0.2657252018693671
-0.27,-1.0,-0.276216812683813
-0.26,-1.0,-0.2856183219300544
-0.25,-1.0,-0.2938926261462368
-0.24,-1.0,-0.30100707043378905
-0.22999999999999998,-1.0,-0.306933577331389
-0.21999999999999997,-1.0,-0.311648757623875
-0.20999999999999996,-1.0,-0.31513400264879365
-0.19999999999999996,-1.0,-0.3173755577362887
-0.18999999999999995,-1.0,-0.3183645764924988
-0.17999999999999994,-1.0,-0.3180971557122327
-0.16999999999999993,-1.0,-0.31657435078313734
-0.16000000000000003,-1.0,-0.3138021715205646
-0.15000000000000002,-1.0,-0.30979155844957557
-0.14,-1.0,-0.3045583396276863
-0.13,-1.0,-0.298123168178757
-0.12,-1.0,-0.2905114407845464
-0.10999999999999999,-1.0,-0.28175319745561117
-0.09999999999999998,-1.0,-0.27188300297711077
-0.08999999999999997,-1.0,-0.2609398104973887
-0.07999999999999996,-1.0,-0.24896680779769295
-0.06999999999999995,-1.0,-0.23601124684973504
-0.05999999999999994,-1.0,-0.22212425733374352
-0.04999999999999993,-1.0,-0.20736064485297623
-0.040000000000000036,-1.0,-0.19177867464104142
-0.030000000000000027,-1.0,-0.1754398416156409
-0.020000000000000018,-1.0,-0.158408627686223
-0.010000000000000009,-1.0,-0.1407522472733456
0.0,-1.0,-0.12254038204406549
0.010000000000000009,-1.0,-0.10384490591023275
0.020000000000000018,-1.0,-0.08473960137499693
0.030000000000000027,-1.0,-0.06529986834697549
0.040000000000000036,-1.0,-0.045602426571260624
0.050000000000000044,-1.0,-0.02572501285163588
0.06000000000000005,-1.0,-0.005746074258926237
0.07000000000000006,-1.0,0.014255541463751804
0.08000000000000007,-1.0,0.03420089707700977
0.09000000000000008,-1.0,0.054011277374408376
0.10000000000000009,-1.0,0.07360849983541567
0.1100000000000001,-1.0,0.09291522317609738
0.1200000000000001,-1.0,0.11185525257983062
0.13000000000000012,-1.0,0.1303538404034354
0.14000000000000012,-1.0,0.14833798117197278
0.15000000000000013,-1.0,0.16573669969800153
0.15999999999999992,-1.0,0.18248133118821797
0.16999999999999993,-1.0,0.19850579223202464
0.17999999999999994,-1.0,0.21374684160256166
0.18999999999999995,-1.0,0.22814432984093658
0.19999999999999996,-1.0,0.24164143663865875
0.20999999999999996,-1.0,0.25418489508144004
0.21999999999999997,-1.0,0.2657252018693673
0.22999999999999998,-1.0,0.27621681268381326
0.24,-1.0,0.2856183219300543
0.25,-1.0,0.2938926261462366
0.26,-1.0,0.30100707043378927
0.27,-1.0,0.306933577331389
0.28,-1.0,0.3116487576238749
0.29000000000000004,-1.0,0.31513400264879377
0.30000000000000004,-1.0,0.3173755577362886
0.31000000000000005,-1.0,0.3183645764924987
0.32000000000000006,-1.0,0.3180971557122326
0.33000000000000007,-1.0,0.31657435078313745
0.3400000000000001,-1.0,0.3138021715205645
0.3500000000000001,-1.0,0.30979155844957557
0.3600000000000001,-1.0,0.3045583396276865
0.3700000000000001,-1.0,0.29812316817875706
0.3800000000000001,-1.0,0.29051144078454616
0.3900000000000001,-1.0,0.2817531974556113
0.40000000000000013,-1.0,0.2718830029771108
0.4099999999999999,-1.0,0.26093981049738857
0.41999999999999993,-1.0,0.24896680779769295
0.42999999999999994,-1.0,0.23601124684973512
0.43999999999999995,-1.0,0.22212425733374358
0.44999999999999996,-1.0,0.2073606448529762
0.45999999999999996,-1.0,0.19177867464104142
0.47,-1.0,0.1754398416156409
0.48,-1.0,0.15840862768622305
0.49,-1.0,0.14075224727334562
0.5,-1.0,0.12254038204406548
0.51,-1.0,0.10384490591023265
0.52,-1.0,0.08473960137499692
0.53,-1.0,0.06529986834697546
0.54,-1.0,0.04560242657126052
0.55,-1.0,0.025725012851635847
0.56,-1.0,0.0057460742589262315
0.5700000000000001,-1.0,-0.014255541463751777
0.5800000000000001,-1.0,-0.03420089707700973
0.5900000000000001,-1.0,-0.05401127737440838
0.6000000000000001,-1.0,-0.07360849983541572
0.6100000000000001,-1.0,-0.09291522317609746
0.6200000000000001,-1.0,-0.11185525257983067
0.6300000000000001,-1.0,-0.13035384040343537
0.6400000000000001,-1.0,-0.14833798117197267
0.6500000000000001,-1.0,-0.16573669969800142
0.6600000000000001,-1.0,-0.18248133118821802
0.6699999999999999,-1.0,-0.19850579223202464
0.6799999999999999,-1.0,-0.21374684160256166
0.69,-1.0,-0.22814432984093652
0.7,-1.0,-0.24164143663865906
0.71,-1.0,-0.2541848950814403
0.72,-1.0,-0.2657252018693671
0.73,-1.0,-0.2762168126838131
0.74,-1.0,-0.2856183219300543
0.75,-1.0,-0.2938926261462367
0.76,-1.0,-0.30100707043378905
0.77,-1.0,-0.30693357733138893
0.78,-1.0,-0.31164875762387506
0.79,-1.0,-0.31513400264879354
0.8,-1.0,-0.31737555773628867
0.81,-1.0,-0.3183645764924986
0.8200000000000001,-1.0,-0.3180971557122326
0.8300000000000001,-1.0,-0.3165743507831373
0.8400000000000001,-1.0,-0.31380217152056467
0.8500000000000001,-1.0,-0.3097915584495754
0.8600000000000001,-1.0,-0.3045583396276864
0.8700000000000001,-1.0,-0.298123168178757
0.8800000000000001,-1.0,-0.29051144078454605
0.8900000000000001,-1.0,-0.2817531974556113
0.9000000000000001,-1.0,-0.27188300297711077
0.9100000000000001,-1.0,-0.26093981049738857
0.9199999999999999,-1.0,-0.248966807797693
0.9299999999999999,-1.0,-0.23601124684973493
0.94,-1.0,-0.22212425733374364
0.95,-1.0,-0.20736064485297623
0.96,-1.0,-0.1917786746410416
0.97,-1.0,-0.1754398416156409
0.98,-1.0,-0.15840862768622305
0.99,-1.0,-0.14075224727334557
1.0,-1.0,-0.12254038204406542

-1.0,-0.99,-0.10384490591023265
-0.99,-0.99,-0.08251619856729744
-0.98,-0.99,-0.060861837486682314
-0.97,-0.99,-0.038967282538635954
-0.96,-0.99,-0.01691894152886761
-0.95,-0.99,0.005196170813586042
-0.94,-0.99,0.02729077624374316
-0.9299999999999999,-0.99,0.04927767744803579
-0.92,-0.99,0.0710701021722705
-0.91,-0.99,0.0925820456720724
-0.9,-0.99,0.11372861013431995
-0.89,-0.99,0.13442633973002704
-0.88,-0.99,0.15459354997637267
-0.87,-0.99,0.17415065010803643
-0.86,-0.99,0.19302045718558763
-0.85,-0.99,0.21112850070128608
-0.84,-0.99,0.22840331648015372
-0.83,-0.99,0.24477672871642367
-0.8200000000000001,-0.99,0.2601841190323
-0.81,-0.99,0.27456468149717317
-0.8,-0.99,0.28786166260084806
-0.79,-0.99,0.30002258523372155
-0.78,-0.99,0.31099945578995863
-0.77,-0.99,0.32074895357632927
-0.76,-0.99,0.3292326017791921
-0.75,-0.99,0.3364169193149009
-0.74,-0.99,0.34227355296434425
-0.73,-0.99,0.34677938927015
-0.72,-0.99,0.3499166457549392
-0.71,-0.99,0.35167294110064307
-0.7,-0.99,0.3520413440119066
-0.69,-0.99,0.35102040057074674
-0.6799999999999999,-0.99,0.3486141399745009
-0.6699999999999999,-0.99,0.3448320586344267
-0.6599999999999999,-0.99,0.3396890826977046
-0.6499999999999999,-0.99,0.3332055091407544
-0.64,-0.99,0.3254069256663432
-0.63,-0.99,0.3163241097206098
-0.62,-0.99,0.3059929070285485
-0.61,-0.99,0.29445409012730717
-0.6,-0.99,0.28175319745561117
-0.59,-0.99,0.26794035363434965
-0.5800000000000001,-0.99,0.2530700716475972
-0.5700000000000001,-0.99,0.23720103770476964
-0.56,-0.99,0.22039587963296742
-0.55,-0.99,0.2027209197135536
-0.54,-0.99,0.1842459129384092
-0.53,-0.99,0.16504377171884754
-0.52,-0.99,0.14519027813363866
-0.51,-0.99,0.12476378485176483
-0.5,-0.99,0.10384490591023258
-0.49,-0.99,0.08251619856729739
-0.48,-0.99,0.06086183748668228
-0.47,-0.99,0.038967282538635926
-0.45999999999999996,-0.99,0.016918941528867575
-0.44999999999999996,-0.99,-0.005196170813586046
-0.43999999999999995,-0.99,-0.02729077624374307
-0.42999999999999994,-0.99,-0.04927767744803587
-0.42000000000000004,-0.99,-0.07107010217227051
-0.41000000000000003,-0.99,-0.09258204567207241
-0.4,-0.99,-0.11372861013431997
-0.39,-0.99,-0.13442633973002716
-0.38,-0.99,-0.15459354997637276
-0.37,-0.99,-0.1741506501080364
-0.36,-0.99,-0.1930204571855877
-0.35,-0.99,-0.21112850070128614
-0.33999999999999997,-0.99,-0.22840331648015372
-0.32999999999999996,-0.99,-0.24477672871642359
-0.31999999999999995,-0.99,-0.2601841190323
-0.30999999999999994,-0.99,-0.27456468149717306
-0.29999999999999993,-0.99,-0.28786166260084806
-0.29000000000000004,-0.99,-0.30002258523372144
-0.28,-0.99,-0.3109994557899585
-0.27,-0.99,-0.3207489535763294
-0.26,-0.99,-0.3292326017791922
-0.25,-0.99,-0.3364169193149009
-0.24,-0.99,-0.34227355296434436
-0.22999999999999998,-0.99,-0.34677938927014995
-0.21999999999999997,-0.99,-0.34991664575493925
-0.20999999999999996,-0.99,-0.3516729411006432
-0.19999999999999996,-0.99,-0.35204134401190673
-0.18999999999999995,-0.99,-0.35102040057074674
-0.17999999999999994,-0.99,-0.3486141399745008
-0.16999999999999993,-0.99,-0.34483205863442645
-0.16000000000000003,-0.99,-0.3396890826977045
-0.15000000000000002,-0.99,-0.3332055091407545
-0.14,-0.99,-0.3254069256663431
-0.13,-0.99,-0.31632410972061
-0.12,-0.99,-0.30599290702854837
-0.10999999999999999,-0.99,-0.2944540901273071
-0.09999999999999998,-0.99,-0.2817531974556113
-0.08999999999999997,-0.99,-0.26794035363434954
-0.07999999999999996,-0.99,-0.25307007164759715
-0.06999999999999995,-0.99,-0.2372010377047695
-0.05999999999999994,-0.99,-0.22039587963296747
-0.04999999999999993,-0.99,-0.20272091971355366
-0.040000000000000036,-0.99,-0.1842459129384092
-0.030000000000000027,-0.99,-0.16504377171884757
-0.020000000000000018,-0.99,-0.14519027813363866
-0.010000000000000009,-0.99,-0.12476378485176498
0.0,-0.99,-0.10384490591023275
0.010000000000000009,-0.99,-0.08251619856729747
0.020000000000000018,-0.99,-0.06086183748668239
0.030000000000000027,-0.99,-0.03896728253863607
0.040000000000000036,-0.99,-0.016918941528867644
0.050000000000000044,-0.99,0.005196170813585997
0.06000000000000005,-0.99,0.0272907762437431
0.07000000000000006,-0.99,0.04927767744803578
0.08000000000000007,-0.99,0.07107010217227047
0.09000000000000008,-0.99,0.09258204567207237
0.10000000000000009,-0.99,0.11372861013431998
0.1100000000000001,-0.99,0.13442633973002704
0.1200000000000001,-0.99,0.15459354997637262
0.13000000000000012,-0.99,0.17415065010803638
0.14000000000000012,-0.99,0.19302045718558755
0.15000000000000013,-0.99,0.21112850070128603
0.15999999999999992,-0.99,0.22840331648015355
0.16999999999999993,-0.99,0.24477672871642359
0.17999999999999994,-0.99,0.26018411903230015
0.18999999999999995,-0.99,0.27456468149717284
0.19999999999999996,-0.99,0.2878616626008479
0.20999999999999996,-0.99,0.3000225852337217
0.21999999999999997,-0.99,0.3109994557899588
0.22999999999999998,-0.99,0.32074895357632927
0.24,-0.99,0.3292326017791921
0.25,-0.99,0.33641691931490103
0.26,-0.99,0.3422735529643445
0.27,-0.99,0.34677938927014995
0.28,-0.99,0.3499166457549392
0.29000000000000004,-0.99,0.351672941100643
0.30000000000000004,-0.99,0.35204134401190657
0.31000000000000005,-0.99,0.3510204005707467
0.32000000000000006,-0.99,0.3486141399745009
0.33000000000000007,-0.99,0.34483205863442645
0.3400000000000001,-0.99,0.3396890826977045
0.3500000000000001,-0.99,0.33320550914075453
0.3600000000000001,-0.99,0.3254069256663431
0.3700000000000001,-0.99,0.31632410972060976
0.3800000000000001,-0.99,0.30599290702854853
0.3900000000000001,-0.99,0.2944540901273073
0.40000000000000013,-0.99,0.2817531974556112
0.4099999999999999,-0.99,0.2679403536343497
0.41999999999999993,-0.99,0.2530700716475972
0.42999999999999994,-0.99,0.23720103770476964
0.43999999999999995,-0.99,0.22039587963296747
0.44999999999999996,-0.99,0.2027209197135537
0.45999999999999996,-0.99,0.18424591293840914
0.47,-0.99,0.16504377171884763
0.48,-0.99,0.14519027813363872
0.49,-0.99,0.12476378485176495
0.5,-0.99,0.10384490591023268
0.51,-0.99,0.08251619856729743
0.52,-0.99,0.06086183748668236
0.53,-0.99,0.038967282538635954
0.54,-0.99,0.016918941528867616
0.55,-0.99,-0.0051961708135860075
0.56,-0.99,-0.027290776243743074
0.5700000000000001,-0.99,-0.04927767744803575
0.5800000000000001,-0.99,-0.07107010217227047
0.5900000000000001,-0.99,-0.09258204567207243
0.6000000000000001,-0.99,-0.11372861013432009
0.6100000000000001,-0.99,-0.1344263397300271
0.6200000000000001,-0.99,-0.15459354997637262
0.6300000000000001,-0.99,-0.17415065010803632
0.6400000000000001,-0.99,-0.19302045718558744
0.6500000000000001,-0.99,-0.21112850070128614
0.6600000000000001,-0.99,-0.22840331648015352
0.6699999999999999,-0.99,-0.24477672871642359
0.6799999999999999,-0.99,-0.2601841190323001
0.69,-0.99,-0.27456468149717317
0.7,-0.99,-0.2878616626008483
0.71,-0.99,-0.30002258523372144
0.72,-0.99,-0.31099945578995863
0.73,-0.99,-0.32074895357632927
0.74,-0.99,-0.32923260177919206
0.75,-0.99,-0.3364169193149008
0.76,-0.99,-0.34227355296434436
0.77,-0.99,-0.34677938927015006
0.78,-0.99,-0.3499166457549391
0.79,-0.99,-0.35167294110064307
0.8,-0.99,-0.35204134401190657
0.81,-0.99,-0.3510204005707467
0.8200000000000001,-0.99,-0.34861413997450075
0.8300000000000001,-0.99,-0.3448320586344267
0.8400000000000001,-0.99,-0.3396890826977043
0.8500000000000001,-0.99,-0.3332055091407545
0.8600000000000001,-0.99,-0.32540692566634305
0.8700000000000001,-0.99,-0.31632410972060965
0.8800000000000001,-0.99,-0.30599290702854853
0.8900000000000001,-0.99,-0.29445409012730717
0.9000000000000001,-0.99,-0.2817531974556112
0.9100000000000001,-0.99,-0.2679403536343497
0.9199999999999999,-0.99,-0.25307007164759704
0.9299999999999999,-0.99,-0.23720103770476964
0.94,-0.99,-0.22039587963296753
0.95,-0.99,-0.20272091971355385
0.96,-0.99,-0.1842459129384091
0.97,-0.99,-0.16504377171884765
0.98,-0.99,-0.14519027813363863
0.99,-0.99,-0.1247637848517649
1.0,-0.99,-0.10384490591023265

-1.0,-0.98,-0.08473960137499693
-0.99,-0.98,-0.060861837486682314
-0.98,-0.98,-0.03674387973093647
-0.97,-0.98,-0.012480910668574513
-0.96,-0.98,0.011831314846210614
-0.95,-0.98,0.0360968475665114
-0.94,-0.98,0.06021992252054803
-0.9299999999999999,-0.98,0.08410533695226179
-0.92,-0.98,0.10765882604309843
-0.91,-0.98,0.13078743493218203
-0.9,-0.98,0.15339988556668374
-0.89,-0.98,0.17540693693459528
-0.88,-0.98,0.19672173725823286
-0.87,-0.98,0.2172601667585249
-0.86,-0.98,0.23694116963734974
-0.85,-0.98,0.25568707396773976
-0.84,-0.98,0.27342389822949176
-0.83,-0.98,0.29008164328042885
-0.8200000000000001,-0.98,0.3055945686110351
-0.81,-0.98,0.3199014517922116
-0.8,-0.98,0.33294583009223566
-0.79,-0.98,0.3446762233093666
-0.78,-0.98,0.3550463369406836
-0.77,-0.98,0.36401524488533765
-0.76,-0.98,0.3715475509611759
-0.75,-0.98,0.37761352859729963
-0.74,-0.98,0.38218923815126177
-0.73,-0.98,0.3852566213878946
-0.72,-0.98,0.386803572746918
-0.71,-0.98,0.3868239871180521
-0.7,-0.98,0.385317783935101
-0.69,-0.98,0.38229090749390887
-0.6799999999999999,-0.98,0.37775530349294084
-0.6699999999999999,-0.98,0.371728871889068
-0.6599999999999999,-0.98,0.36423539625461654
-0.6499999999999999,-0.98,0.3553044499144721
-0.64,-0.98,0.34497127923367793
-0.63,-0.98,0.33327666451613447
-0.62,-0.98,0.3202667590633708
-0.61,-0.98,0.30599290702854837
-0.6,-0.98,0.29051144078454605
-0.59,-0.98,0.27388345860581975
-0.5800000000000001,-0.98,0.2561745835414263
-0.5700000000000001,-0.98,0.23745470443082956
-0.56,-0.98,0.2177977000845796
-0.55,-0.98,0.19728114771840044
-0.54,-0.98,0.17598601679135978
-0.53,-0.98,0.15399634945640683
-0.52,-0.98,0.13139892888438937
-0.51,-0.98,0.10828293677052567
-0.5,-0.98,0.08473960137499686
-0.49,-0.98,0.06086183748668229
-0.48,-0.98,0.03674387973093644
-0.47,-0.98,0.01248091066857448
-0.45999999999999996,-0.98,-0.011831314846210611
-0.44999999999999996,-0.98,-0.036096847566511304
-0.43999999999999995,-0.98,-0.06021992252054811
-0.42999999999999994,-0.98,-0.08410533695226183
-0.42000000000000004,-0.98,-0.10765882604309847
-0.41000000000000003,-0.98,-0.13078743493218206
-0.4,-0.98,-0.15339988556668388
-0.39,-0.98,-0.17540693693459536
-0.38,-0.98,-0.1967217372582328
-0.37,-0.98,-0.217260166758525
-0.36,-0.98,-0.2369411696373498
-0.35,-0.98,-0.2556870739677398
-0.33999999999999997,-0.98,-0.27342389822949165
-0.32999999999999996,-0.98,-0.29008164328042885
-0.31999999999999995,-0.98,-0.305594568611035
-0.30999999999999994,-0.98,-0.3199014517922116
-0.29999999999999993,-0.98,-0.33294583009223555
-0.29000000000000004,-0.98,-0.3446762233093665
-0.28,-0.98,-0.3550463369406837
-0.27,-0.98,-0.3640152448853379
-0.26,-0.98,-0.37154755096117587
-0.25,-0.98,-0.3776135285972998
-0.24,-0.98,-0.3821892381512616
-0.22999999999999998,-0.98,-0.3852566213878946
-0.21999999999999997,-0.98,-0.3868035727469181
-0.20999999999999996,-0.98,-0.38682398711805227
-0.19999999999999996,-0.98,-0.385317783935101
-0.18999999999999995,-0.98,-0.3822909074939087
-0.17999999999999994,-0.98,-0.3777553034929405
-0.16999999999999993,-0.98,-0.371728871889068
-0.16000000000000003,-0.98,-0.3642353962546164
-0.15000000000000002,-0.98,-0.355304449914472
-0.14,-0.98,-0.344971279233678
-0.13,-0.98,-0.33327666451613447
-0.12,-0.98,-0.32026675906337065
-0.10999999999999999,-0.98,-0.3059929070285485
-0.09999999999999998,-0.98,-0.29051144078454594
-0.08999999999999997,-0.98,-0.2738834586058197
-0.07999999999999996,-0.98,-0.2561745835414262
-0.06999999999999995,-0.98,-0.23745470443082953
-0.05999999999999994,-0.98,-0.21779770008457966
-0.04999999999999993,-0.98,-0.1972811477184005
-0.040000000000000036,-0.98,-0.17598601679135978
-0.030000000000000027,-0.98,-0.1539963494564069
-0.020000000000000018,-0.98,-0.13139892888438956
-0.010000000000000009,-0.98,-0.10828293677052585
0.0,-0.98,-0.08473960137499699
0.010000000000000009,-0.98,-0.0608618374866824
0.020000000000000018,-0.98,-0.0367438797309366
0.030000000000000027,-0.98,-0.01248091066857456
0.040000000000000036,-0.98,0.011831314846210556
0.050000000000000044,-0.98,0.03609684756651133
0.06000000000000005,-0.98,0.060219922520548023
0.07000000000000006,-0.98,0.08410533695226177
0.08000000000000007,-0.98,0.10765882604309839
0.09000000000000008,-0.98,0.13078743493218206
0.10000000000000009,-0.98,0.15339988556668377
0.1100000000000001,-0.98,0.1754069369345952
0.1200000000000001,-0.98,0.1967217372582328
0.13000000000000012,-0.98,0.21726016675852478
0.14000000000000012,-0.98,0.23694116963734962
0.15000000000000013,-0.98,0.2556870739677396
0.15999999999999992,-0.98,0.2734238982294917
0.16999999999999993,-0.98,0.29008164328042907
0.17999999999999994,-0.98,0.3055945686110348
0.18999999999999995,-0.98,0.3199014517922114
0.19999999999999996,-0.98,0.3329458300922358
0.20999999999999996,-0.98,0.34467622330936676
0.21999999999999997,-0.98,0.35504633694068355
0.22999999999999998,-0.98,0.36401524488533776
0.24,-0.98,0.371547550961176
0.25,-0.98,0.3776135285972999
0.26,-0.98,0.3821892381512617
0.27,-0.98,0.3852566213878946
0.28,-0.98,0.386803572746918
0.29000000000000004,-0.98,0.38682398711805216
0.30000000000000004,-0.98,0.38531778393510097
0.31000000000000005,-0.98,0.3822909074939088
0.32000000000000006,-0.98,0.37775530349294056
0.33000000000000007,-0.98,0.37172887188906806
0.3400000000000001,-0.98,0.36423539625461643
0.3500000000000001,-0.98,0.35530444991447213
0.3600000000000001,-0.98,0.3449712792336778
0.3700000000000001,-0.98,0.3332766645161346
0.3800000000000001,-0.98,0.32026675906337093
0.3900000000000001,-0.98,0.30599290702854837
0.40000000000000013,-0.98,0.29051144078454605
0.4099999999999999,-0.98,0.27388345860581986
0.41999999999999993,-0.98,0.2561745835414263
0.42999999999999994,-0.98,0.23745470443082956
0.43999999999999995,-0.98,0.21779770008457972
0.44999999999999996,-0.98,0.19728114771840038
0.45999999999999996,-0.98,0.17598601679135983
0.47,-0.98,0.1539963494564069
0.48,-0.98,0.13139892888438953
0.49,-0.98,0.10828293677052575
0.5,-0.98,0.08473960137499692
0.51,-0.98,0.06086183748668236
0.52,-0.98,0.03674387973093647
0.53,-0.98,0.012480910668574529
0.54,-0.98,-0.011831314846210571
0.55,-0.98,-0.036096847566511304
0.56,-0.98,-0.060219922520547996
0.5700000000000001,-0.98,-0.08410533695226177
0.5800000000000001,-0.98,-0.10765882604309845
0.5900000000000001,-0.98,-0.13078743493218214
0.6000000000000001,-0.98,-0.15339988556668377
0.6100000000000001,-0.98,-0.17540693693459525
0.6200000000000001,-0.98,-0.19672173725823275
0.6300000000000001,-0.98,-0.21726016675852466
0.6400000000000001,-0.98,-0.23694116963734968
0.6500000000000001,-0.98,-0.25568707396773954
0.6600000000000001,-0.98,-0.2734238982294917
0.6699999999999999,-0.98,-0.29008164328042896
0.6799999999999999,-0.98,-0.3055945686110351
0.69,-0.98,-0.31990145179221186
0.7,-0.98,-0.33294583009223555
0.71,-0.98,-0.3446762233093666
0.72,-0.98,-0.3550463369406836
0.73,-0.98,-0.36401524488533765
0.74,-0.98,-0.37154755096117587
0.75,-0.98,-0.3776135285972998
0.76,-0.98,-0.3821892381512617
0.77,-0.98,-0.3852566213878945
0.78,-0.98,-0.386803572746918
0.79,-0.98,-0.3868239871180521
0.8,-0.98,-0.38531778393510097
0.81,-0.98,-0.3822909074939086
0.8200000000000001,-0.98,-0.37775530349294073
0.8300000000000001,-0.98,-0.3717288718890679
0.8400000000000001,-0.98,-0.36423539625461643
0.8500000000000001,-0.98,-0.35530444991447196
0.8600000000000001,-0.98,-0.34497127923367776
0.8700000000000001,-0.98,-0.3332766645161346
0.8800000000000001,-0.98,-0.3202667590633708
0.8900000000000001,-0.98,-0.30599290702854853
0.9000000000000001,-0.98,-0.29051144078454616
0.9100000000000001,-0.98,-0.2738834586058196
0.9199999999999999,-0.98,-0.2561745835414263
0.9299999999999999,-0.98,-0.2374547044308296
0.94,-0.98,-0.21779770008457988
0.95,-0.98,-0.19728114771840038
0.96,-0.98,-0.1759860167913599
0.97,-0.98,-0.1539963494564069
0.98,-0.98,-0.13139892888438948
0.99,-0.98,-0.10828293677052578
1.0,-0.98,-0.08473960137499693

-1.0,-0.97,-0.0652998683469754
-0.99,-0.97,-0.038967282538635954
-0.98,-0.97,-0.012480910668574513
-0.97,-0.97,0.0140547176539101
-0.96,-0.97,0.04053487842680449
-0.95,-0.97,0.06685506655317261
-0.94,-0.97,0.09291140827503003
-0.9299999999999999,-0.97,0.11860107111561068
-0.92,-0.97,0.1438226697121733
-0.91,-0.97,0.1684766659377098
-0.9,-0.97,0.19246576173245739
-0.89,-0.97,0.21569528309488956
-0.88,-0.97,0.23807355371674752
-0.87,-0.97,0.2595122567875461
-0.86,-0.97,0.279926783540677
-0.85,-0.97,0.29923656716555536
-0.84,-0.97,0.31736540076801484
-0.83,-0.97,0.33424173812410324
-0.8200000000000001,-0.97,0.3497989760403405
-0.81,-0.97,0.3639757172060976
-0.8,-0.97,0.37671601250073017
-0.79,-0.97,0.3879695817991977
-0.78,-0.97,0.39769201240474555
-0.77,-0.97,0.4058449343255302
-0.76,-0.97,0.4123961717034452
-0.75,-0.97,0.41731986979753677
-0.74,-0.97,0.42059659702085
-0.73,-0.97,0.42221342162802966
-0.72,-0.97,0.42216396275100765
-0.71,-0.97,0.4204484155813759
-0.7,-0.97,0.41707355060005435
-0.69,-0.97,0.4120526868572951
-0.6799999999999999,-0.97,0.40540563940847596
-0.6699999999999999,-0.97,0.3971586411131306
-0.6599999999999999,-0.97,0.3873442391058356
-0.6499999999999999,-0.97,0.3760011663475399
-0.64,-0.97,0.3631741887642634
-0.63,-0.97,0.3489139285764389
-0.62,-0.97,0.33327666451613436
-0.61,-0.97,0.3163241097206097
-0.6,-0.97,0.2981231681787569
-0.59,-0.97,0.2787456706916227
-0.5800000000000001,-0.97,0.2582680913890521
-0.5700000000000001,-0.97,0.23677124592123633
-0.56,-0.97,0.21433997251626247
-0.55,-0.97,0.19106279716238578
-0.54,-0.97,0.1670315842363981
-0.53,-0.97,0.14234117395690157
-0.52,-0.97,0.11708900809329388
-0.51,-0.97,0.09137474540762142
-0.5,-0.97,0.06529986834697538
-0.49,-0.97,0.038967282538635926
-0.48,-0.97,0.012480910668574471
-0.47,-0.97,-0.014054717653910098
-0.45999999999999996,-0.97,-0.040534878426804394
-0.44999999999999996,-0.97,-0.06685506655317267
-0.43999999999999995,-0.97,-0.09291140827503008
-0.42999999999999994,-0.97,-0.11860107111561072
-0.42000000000000004,-0.97,-0.14382266971217333
-0.41000000000000003,-0.97,-0.16847666593770994
-0.4,-0.97,-0.19246576173245747
-0.39,-0.97,-0.2156952830948895
-0.38,-0.97,-0.23807355371674763
-0.37,-0.97,-0.2595122567875462
-0.36,-0.97,-0.27992678354067696
-0.35,-0.97,-0.29923656716555536
-0.33999999999999997,-0.97,-0.3173654007680149
-0.32999999999999996,-0.97,-0.3342417381241032
-0.31999999999999995,-0.97,-0.3497989760403405
-0.30999999999999994,-0.97,-0.36397571720609745
-0.29999999999999993,-0.97,-0.37671601250072995
-0.29000000000000004,-0.97,-0.3879695817991978
-0.28,-0.97,-0.39769201240474583
-0.27,-0.97,-0.40584493432553026
-0.26,-0.97,-0.4123961717034454
-0.25,-0.97,-0.41731986979753644
-0.24,-0.97,-0.42059659702085006
-0.22999999999999998,-0.97,-0.4222134216280298
-0.21999999999999997,-0.97,-0.42216396275100765
-0.20999999999999996,-0.97,-0.42044841558137597
-0.19999999999999996,-0.97,-0.41707355060005435
-0.18999999999999995,-0.97,-0.41205268685729485
-0.17999999999999994,-0.97,-0.40540563940847585
-0.16999999999999993,-0.97,-0.3971586411131304
-0.16000000000000003,-0.97,-0.38734423910583543
-0.15000000000000002,-0.97,-0.3760011663475399
-0.14,-0.97,-0.36317418876426333
-0.13,-0.97,-0.34891392857643877
-0.12,-0.97,-0.3332766645161346
-0.10999999999999999,-0.97,-0.31632410972060954
-0.09999999999999998,-0.97,-0.2981231681787569
-0.08999999999999997,-0.97,-0.2787456706916226
-0.07999999999999996,-0.97,-0.25826809138905216
-0.06999999999999995,-0.97,-0.23677124592123638
-0.05999999999999994,-0.97,-0.21433997251626252
-0.04999999999999993,-0.97,-0.19106279716238583
-0.040000000000000036,-0.97,-0.1670315842363982
-0.030000000000000027,-0.97,-0.14234117395690182
-0.020000000000000018,-0.97,-0.11708900809329409
-0.010000000000000009,-0.97,-0.09137474540762155
0.0,-0.97,-0.0652998683469755
0.010000000000000009,-0.97,-0.0389672825386361
0.020000000000000018,-0.97,-0.012480910668574567
0.030000000000000027,-0.97,0.014054717653910028
0.040000000000000036,-0.97,0.04053487842680442
0.050000000000000044,-0.97,0.06685506655317257
0.06000000000000005,-0.97,0.09291140827503003
0.07000000000000006,-0.97,0.1186010711156106
0.08000000000000007,-0.97,0.14382266971217336
0.09000000000000008,-0.97,0.1684766659377098
0.10000000000000009,-0.97,0.19246576173245733
0.1100000000000001,-0.97,0.2156952830948895
0.1200000000000001,-0.97,0.23807355371674735
0.13000000000000012,-0.97,0.259512256787546
0.14000000000000012,-0.97,0.2799267835406769
0.15000000000000013,-0.97,0.29923656716555525
0.15999999999999992,-0.97,0.31736540076801506
0.16999999999999993,-0.97,0.3342417381241029
0.17999999999999994,-0.97,0.34979897604034027
0.18999999999999995,-0.97,0.3639757172060977
0.19999999999999996,-0.97,0.37671601250073034
0.20999999999999996,-0.97,0.3879695817991976
0.21999999999999997,-0.97,0.39769201240474567
0.22999999999999998,-0.97,0.4058449343255303
0.24,-0.97,0.4123961717034454
0.25,-0.97,0.41731986979753666
0.26,-0.97,0.42059659702085006
0.27,-0.97,0.42221342162802966
0.28,-0.97,0.4221639627510076
0.29000000000000004,-0.97,0.4204484155813759
0.30000000000000004,-0.97,0.41707355060005447
0.31000000000000005,-0.97,0.4120526868572949
0.32000000000000006,-0.97,0.40540563940847596
0.33000000000000007,-0.97,0.39715864111313043
0.3400000000000001,-0.97,0.3873442391058356
0.3500000000000001,-0.97,0.3760011663475398
0.3600000000000001,-0.97,0.36317418876426355
0.3700000000000001,-0.97,0.348913928576439
0.3800000000000001,-0.97,0.33327666451613447
0.3900000000000001,-0.97,0.31632410972060965
0.40000000000000013,-0.97,0.29812316817875706
0.4099999999999999,-0.97,0.2787456706916228
0.41999999999999993,-0.97,0.25826809138905216
0.42999999999999994,-0.97,0.2367712459212364
0.43999999999999995,-0.97,0.21433997251626247
0.44999999999999996,-0.97,0.1910627971623859
0.45999999999999996,-0.97,0.16703158423639816
0.47,-0.97,0.14234117395690177
0.48,-0.97,0.11708900809329398
0.49,-0.97,0.09137474540762151
0.5,-0.97,0.06529986834697546
0.51,-0.97,0.03896728253863596
0.52,-0.97,0.012480910668574532
0.53,-0.97,-0.014054717653910049
0.54,-0.97,-0.04053487842680439
0.55,-0.97,-0.06685506655317257
0.56,-0.97,-0.09291140827503001
0.5700000000000001,-0.97,-0.11860107111561072
0.5800000000000001,-0.97,-0.14382266971217345
0.5900000000000001,-0.97,-0.16847666593770977
0.6000000000000001,-0.97,-0.19246576173245733