TITLE = "Solution" 
VARIABLES = "x", "y", "sol" 
ZONE STRANDID=1, SOLUTIONTIME= 0.4500000000000003, I= 201, J =201, DATAPACKING=POINT 
-1.0,-1.0,0.014059018651804197
-0.99,-1.0,0.032484947071528686
-0.98,-1.0,0.05078267224612244
-0.97,-1.0,0.0688799814137569
-0.96,-1.0,0.08670545276302144
-0.95,-1.0,0.10418873730218368
-0.94,-1.0,0.12126083649452063
-0.9299999999999999,-1.0,0.13785437456402028
-0.92,-1.0,0.15390386439678866
-0.91,-1.0,0.1693459659887705
-0.9,-1.0,0.18411973641980728
-0.89,-1.0,0.19816687036750125
-0.88,-1.0,0.2114319302116861
-0.87,-1.0,0.2238625648213864
-0.86,-1.0,0.2354097161608139
-0.85,-1.0,0.2460278128990238
-0.84,-1.0,0.2556749502591374
-0.83,-1.0,0.2643130553973522
-0.8200000000000001,-1.0,0.2719080376590626
-0.81,-1.0,0.27842992311909875
-0.8,-1.0,0.2838529728751156
-0.79,-1.0,0.28815578462728264
-0.78,-1.0,0.29132137714338135
-0.77,-1.0,0.2933372572759726
-0.76,-1.0,0.2941954692671408
-0.75,-1.0,0.2938926261462367
-0.74,-1.0,0.2924299230967027
-0.73,-1.0,0.2898131327392295
-0.72,-1.0,0.28605258234986086
-0.71,-1.0,0.28116311310295117
-0.7,-1.0,0.2751640214998319
-0.69,-1.0,0.26807898321433654
-0.6799999999999999,-1.0,0.2599359596557318
-0.6699999999999999,-1.0,0.25076708761780986
-0.6599999999999999,-1.0,0.24060855244964505
-0.6499999999999999,-1.0,0.22950044524855323
-0.64,-1.0,0.2174866046388451
-0.63,-1.0,0.20461444376080623
-0.62,-1.0,0.19093476315269056
-0.61,-1.0,0.17650155026420725
-0.6,-1.0,0.16137176639271925
-0.59,-1.0,0.14560512188302654
-0.5800000000000001,-1.0,0.12926384047791414
-0.5700000000000001,-1.0,0.11241241374946663
-0.56,-1.0,0.09511734658029686
-0.55,-1.0,0.07744689469915668
-0.54,-1.0,0.0594707953067596
-0.53,-1.0,0.04125999185490864
-0.52,-1.0,0.02288635406510363
-0.51,-1.0,0.004422394291584225
-0.5,-1.0,-0.014059018651804247
-0.49,-1.0,-0.032484947071528734
-0.48,-1.0,-0.05078267224612249
-0.47,-1.0,-0.06887998141375687
-0.45999999999999996,-1.0,-0.08670545276302144
-0.44999999999999996,-1.0,-0.10418873730218373
-0.43999999999999995,-1.0,-0.1212608364945206
-0.42999999999999994,-1.0,-0.13785437456402028
-0.42000000000000004,-1.0,-0.15390386439678877
-0.41000000000000003,-1.0,-0.16934596598877052
-0.4,-1.0,-0.18411973641980717
-0.39,-1.0,-0.19816687036750133
-0.38,-1.0,-0.21143193021168613
-0.37,-1.0,-0.2238625648213864
-0.36,-1.0,-0.23540971616081388
-0.35,-1.0,-0.2460278128990238
-0.33999999999999997,-1.0,-0.2556749502591375
-0.32999999999999996,-1.0,-0.2643130553973523
-0.31999999999999995,-1.0,-0.2719080376590627
-0.30999999999999994,-1.0,-0.27842992311909853
-0.29999999999999993,-1.0,-0.2838529728751157
-0.29000000000000004,-1.0,-0.2881557846272827
-0.28,-1.0,-0.29132137714338147
-0.27,-1.0,-0.2933372572759726
-0.26,-1.0,-0.2941954692671407
-0.25,-1.0,-0.2938926261462367
-0.24,-1.0,-0.29242992309670257
-0.22999999999999998,-1.0,-0.2898131327392297
-0.21999999999999997,-1.0,-0.28605258234986086
-0.20999999999999996,-1.0,-0.2811631131029513
-0.19999999999999996,-1.0,-0.275164021499832
-0.18999999999999995,-1.0,-0.2680789832143366
-0.17999999999999994,-1.0,-0.25993595965573174
-0.16999999999999993,-1.0,-0.25076708761780986
-0.16000000000000003,-1.0,-0.24060855244964505
-0.15000000000000002,-1.0,-0.22950044524855306
-0.14,-1.0,-0.2174866046388452
-0.13,-1.0,-0.20461444376080618
-0.12,-1.0,-0.19093476315269062
-0.10999999999999999,-1.0,-0.17650155026420733
-0.09999999999999998,-1.0,-0.16137176639271925
-0.08999999999999997,-1.0,-0.14560512188302652
-0.07999999999999996,-1.0,-0.12926384047791403
-0.06999999999999995,-1.0,-0.11241241374946662
-0.05999999999999994,-1.0,-0.09511734658029677
-0.04999999999999993,-1.0,-0.07744689469915667
-0.040000000000000036,-1.0,-0.05947079530675953
-0.030000000000000027,-1.0,-0.0412599918549086
-0.020000000000000018,-1.0,-0.022886354065103587
-0.010000000000000009,-1.0,-0.0044223942915842095
0.0,-1.0,0.014059018651804282
0.010000000000000009,-1.0,0.032484947071528755
0.020000000000000018,-1.0,0.05078267224612251
0.030000000000000027,-1.0,0.06887998141375692
0.040000000000000036,-1.0,0.08670545276302144
0.050000000000000044,-1.0,0.10418873730218374
0.06000000000000005,-1.0,0.12126083649452066
0.07000000000000006,-1.0,0.13785437456402028
0.08000000000000007,-1.0,0.1539038643967887
0.09000000000000008,-1.0,0.16934596598877044
0.10000000000000009,-1.0,0.1841197364198072
0.1100000000000001,-1.0,0.19816687036750125
0.1200000000000001,-1.0,0.21143193021168627
0.13000000000000012,-1.0,0.22386256482138622
0.14000000000000012,-1.0,0.23540971616081371
0.15000000000000013,-1.0,0.24602781289902387
0.15999999999999992,-1.0,0.2556749502591375
0.16999999999999993,-1.0,0.2643130553973523
0.17999999999999994,-1.0,0.2719080376590624
0.18999999999999995,-1.0,0.27842992311909864
0.19999999999999996,-1.0,0.2838529728751157
0.20999999999999996,-1.0,0.28815578462728253
0.21999999999999997,-1.0,0.29132137714338147
0.22999999999999998,-1.0,0.2933372572759728
0.24,-1.0,0.2941954692671407
0.25,-1.0,0.2938926261462367
0.26,-1.0,0.29242992309670257
0.27,-1.0,0.28981313273922965
0.28,-1.0,0.28605258234986086
0.29000000000000004,-1.0,0.28116311310295106
0.30000000000000004,-1.0,0.275164021499832
0.31000000000000005,-1.0,0.26807898321433665
0.32000000000000006,-1.0,0.2599359596557318
0.33000000000000007,-1.0,0.25076708761780986
0.3400000000000001,-1.0,0.24060855244964513
0.3500000000000001,-1.0,0.22950044524855312
0.3600000000000001,-1.0,0.2174866046388453
0.3700000000000001,-1.0,0.20461444376080612
0.3800000000000001,-1.0,0.19093476315269065
0.3900000000000001,-1.0,0.17650155026420727
0.40000000000000013,-1.0,0.1613717663927191
0.4099999999999999,-1.0,0.14560512188302646
0.41999999999999993,-1.0,0.129263840477914
0.42999999999999994,-1.0,0.11241241374946655
0.43999999999999995,-1.0,0.09511734658029672
0.44999999999999996,-1.0,0.0774468946991566
0.45999999999999996,-1.0,0.059470795306759514
0.47,-1.0,0.041259991854908626
0.48,-1.0,0.02288635406510361
0.49,-1.0,0.004422394291584256
0.5,-1.0,-0.014059018651804242
0.51,-1.0,-0.03248494707152872
0.52,-1.0,-0.05078267224612251
0.53,-1.0,-0.06887998141375692
0.54,-1.0,-0.08670545276302136
0.55,-1.0,-0.1041887373021837
0.56,-1.0,-0.12126083649452062
0.5700000000000001,-1.0,-0.13785437456402033
0.5800000000000001,-1.0,-0.15390386439678874
0.5900000000000001,-1.0,-0.1693459659887706
0.6000000000000001,-1.0,-0.18411973641980728
0.6100000000000001,-1.0,-0.19816687036750136
0.6200000000000001,-1.0,-0.21143193021168613
0.6300000000000001,-1.0,-0.22386256482138636
0.6400000000000001,-1.0,-0.2354097161608138
0.6500000000000001,-1.0,-0.2460278128990237
0.6600000000000001,-1.0,-0.2556749502591375
0.6699999999999999,-1.0,-0.2643130553973523
0.6799999999999999,-1.0,-0.27190803765906246
0.69,-1.0,-0.27842992311909837
0.7,-1.0,-0.28385297287511563
0.71,-1.0,-0.28815578462728264
0.72,-1.0,-0.2913213771433814
0.73,-1.0,-0.29333725727597254
0.74,-1.0,-0.29419546926714085
0.75,-1.0,-0.29389262614623657
0.76,-1.0,-0.29242992309670257
0.77,-1.0,-0.2898131327392295
0.78,-1.0,-0.2860525823498609
0.79,-1.0,-0.2811631131029512
0.8,-1.0,-0.2751640214998319
0.81,-1.0,-0.26807898321433643
0.8200000000000001,-1.0,-0.25993595965573163
0.8300000000000001,-1.0,-0.2507670876178097
0.8400000000000001,-1.0,-0.24060855244964502
0.8500000000000001,-1.0,-0.22950044524855295
0.8600000000000001,-1.0,-0.21748660463884517
0.8700000000000001,-1.0,-0.20461444376080612
0.8800000000000001,-1.0,-0.19093476315269065
0.8900000000000001,-1.0,-0.17650155026420736
0.9000000000000001,-1.0,-0.16137176639271936
0.9100000000000001,-1.0,-0.14560512188302652
0.9199999999999999,-1.0,-0.12926384047791417
0.9299999999999999,-1.0,-0.11241241374946669
0.94,-1.0,-0.09511734658029686
0.95,-1.0,-0.07744689469915673
0.96,-1.0,-0.059470795306759604
0.97,-1.0,-0.04125999185490868
0.98,-1.0,-0.02288635406510367
0.99,-1.0,-0.004422394291584293
1.0,-1.0,0.014059018651804197

-1.0,-0.99,0.032484947071528686
-0.99,-0.99,0.054083202128572185
-0.98,-0.99,0.07546801549507903
-0.97,-0.99,0.09655499108248344
-0.96,-0.99,0.11726090823186466
-0.95,-0.99,0.13750405014786798
-0.94,-0.99,0.1572045263975627
-0.9299999999999999,-0.99,0.17628458820148263
-0.92,-0.99,0.19466893527253895
-0.91,-0.99,0.21228501299185143
-0.9,-0.99,0.2290632987486821
-0.89,-0.99,0.2449375763144186
-0.88,-0.99,0.25984519716777665
-0.87,-0.99,0.2737273277398919
-0.86,-0.99,0.28652918160353846
-0.85,-0.99,0.29820023569012716
-0.84,-0.99,0.30869442968117583
-0.83,-0.99,0.3179703477873433
-0.8200000000000001,-0.99,0.3259913821976278
-0.81,-0.99,0.33272587755367383
-0.8,-0.99,0.3381472558790101
-0.79,-0.99,0.34223412147017823
-0.78,-0.99,0.3449703453358013
-0.77,-0.99,0.3463451288503434
-0.76,-0.99,0.34635304637135156
-0.75,-0.99,0.34499406665198745
-0.74,-0.99,0.34227355296434436
-0.73,-0.99,0.33820224193306353
-0.72,-0.99,0.33279620116277997
-0.71,-0.99,0.3260767658266287
-0.7,-0.99,0.31807045446606397
-0.69,-0.99,0.30880886433429
-0.6799999999999999,-0.99,0.2983285466963388
-0.6699999999999999,-0.99,0.2866708625779256
-0.6599999999999999,-0.99,0.2738818195323769
-0.6499999999999999,-0.99,0.2600118900698347
-0.64,-0.99,0.24511581246532074
-0.63,-0.99,0.22925237473176846
-0.62,-0.99,0.21248418261059754
-0.61,-0.99,0.1948774124954517
-0.6,-0.99,0.17650155026420733
-0.59,-0.99,0.15742911704995824
-0.5800000000000001,-0.99,0.13773538303323501
-0.5700000000000001,-0.99,0.1174980703849908
-0.56,-0.99,0.0967970465326991
-0.55,-0.99,0.07571400896010697
-0.54,-0.99,0.05433216278458963
-0.53,-0.99,0.03273589238456564
-0.52,-0.99,0.011010428372906347
-0.51,-0.99,-0.010758488769354514
-0.5,-0.99,-0.03248494707152874
-0.49,-0.99,-0.05408320212857223
-0.48,-0.99,-0.07546801549507903
-0.47,-0.99,-0.09655499108248347
-0.45999999999999996,-0.99,-0.11726090823186472
-0.44999999999999996,-0.99,-0.13750405014786798
-0.43999999999999995,-0.99,-0.15720452639756272
-0.42999999999999994,-0.99,-0.1762845882014827
-0.42000000000000004,-0.99,-0.19466893527253898
-0.41000000000000003,-0.99,-0.2122850129918513
-0.4,-0.99,-0.22906329874868217
-0.39,-0.99,-0.24493757631441865
-0.38,-0.99,-0.2598451971677767
-0.37,-0.99,-0.2737273277398919
-0.36,-0.99,-0.28652918160353835
-0.35,-0.99,-0.29820023569012727
-0.33999999999999997,-0.99,-0.3086944296811759
-0.32999999999999996,-0.99,-0.3179703477873434
-0.31999999999999995,-0.99,-0.32599138219762747
-0.30999999999999994,-0.99,-0.33272587755367394
-0.29999999999999993,-0.99,-0.3381472558790102
-0.29000000000000004,-0.99,-0.3422341214701783
-0.28,-0.99,-0.3449703453358014
-0.27,-0.99,-0.3463451288503434
-0.26,-0.99,-0.34635304637135145
-0.25,-0.99,-0.3449940666519874
-0.24,-0.99,-0.3422735529643445
-0.22999999999999998,-0.99,-0.3382022419330635
-0.21999999999999997,-0.99,-0.33279620116277997
-0.20999999999999996,-0.99,-0.3260767658266289
-0.19999999999999996,-0.99,-0.3180704544660641
-0.18999999999999995,-0.99,-0.30880886433429
-0.17999999999999994,-0.99,-0.2983285466963389
-0.16999999999999993,-0.99,-0.2866708625779256
-0.16000000000000003,-0.99,-0.27388181953237667
-0.15000000000000002,-0.99,-0.2600118900698349
-0.14,-0.99,-0.24511581246532071
-0.13,-0.99,-0.22925237473176857
-0.12,-0.99,-0.21248418261059765
-0.10999999999999999,-0.99,-0.1948774124954517
-0.09999999999999998,-0.99,-0.17650155026420733
-0.08999999999999997,-0.99,-0.1574291170499581
-0.07999999999999996,-0.99,-0.13773538303323504
-0.06999999999999995,-0.99,-0.11749807038499072
-0.05999999999999994,-0.99,-0.09679704653269906
-0.04999999999999993,-0.99,-0.07571400896010691
-0.040000000000000036,-0.99,-0.05433216278458959
-0.030000000000000027,-0.99,-0.03273589238456558
-0.020000000000000018,-0.99,-0.01101042837290633
-0.010000000000000009,-0.99,0.010758488769354549
0.0,-0.99,0.03248494707152876
0.010000000000000009,-0.99,0.05408320212857226
0.020000000000000018,-0.99,0.07546801549507906
0.030000000000000027,-0.99,0.09655499108248347
0.040000000000000036,-0.99,0.11726090823186477
0.050000000000000044,-0.99,0.13750405014786804
0.06000000000000005,-0.99,0.15720452639756266
0.07000000000000006,-0.99,0.17628458820148263
0.08000000000000007,-0.99,0.19466893527253892
0.09000000000000008,-0.99,0.21228501299185132
0.10000000000000009,-0.99,0.22906329874868206
0.1100000000000001,-0.99,0.24493757631441876
0.1200000000000001,-0.99,0.25984519716777654
0.13000000000000012,-0.99,0.2737273277398917
0.14000000000000012,-0.99,0.28652918160353846
0.15000000000000013,-0.99,0.2982002356901272
0.15999999999999992,-0.99,0.308694429681176
0.16999999999999993,-0.99,0.317970347787343
0.17999999999999994,-0.99,0.32599138219762763
0.18999999999999995,-0.99,0.33272587755367383
0.19999999999999996,-0.99,0.33814725587901007
0.20999999999999996,-0.99,0.3422341214701783
0.21999999999999997,-0.99,0.3449703453358016
0.22999999999999998,-0.99,0.34634512885034335
0.24,-0.99,0.34635304637135145
0.25,-0.99,0.34499406665198734
0.26,-0.99,0.3422735529643444
0.27,-0.99,0.33820224193306364
0.28,-0.99,0.3327962011627798
0.29000000000000004,-0.99,0.3260767658266289
0.30000000000000004,-0.99,0.318070454466064
0.31000000000000005,-0.99,0.30880886433429
0.32000000000000006,-0.99,0.29832854669633896
0.33000000000000007,-0.99,0.28667086257792584
0.3400000000000001,-0.99,0.2738818195323769
0.3500000000000001,-0.99,0.2600118900698351
0.3600000000000001,-0.99,0.24511581246532066
0.3700000000000001,-0.99,0.22925237473176863
0.3800000000000001,-0.99,0.2124841826105975
0.3900000000000001,-0.99,0.19487741249545157
0.40000000000000013,-0.99,0.17650155026420733
0.4099999999999999,-0.99,0.1574291170499581
0.41999999999999993,-0.99,0.13773538303323496
0.42999999999999994,-0.99,0.11749807038499063
0.43999999999999995,-0.99,0.09679704653269898
0.44999999999999996,-0.99,0.07571400896010685
0.45999999999999996,-0.99,0.05433216278458961
0.47,-0.99,0.032735892384565604
0.48,-0.99,0.011010428372906361
0.49,-0.99,-0.010758488769354509
0.5,-0.99,-0.032484947071528734
0.51,-0.99,-0.054083202128572254
0.52,-0.99,-0.07546801549507906
0.53,-0.99,-0.09655499108248336
0.54,-0.99,-0.11726090823186469
0.55,-0.99,-0.13750405014786798
0.56,-0.99,-0.15720452639756277
0.5700000000000001,-0.99,-0.17628458820148268
0.5800000000000001,-0.99,-0.19466893527253906
0.5900000000000001,-0.99,-0.21228501299185148
0.6000000000000001,-0.99,-0.22906329874868225
0.6100000000000001,-0.99,-0.24493757631441865
0.6200000000000001,-0.99,-0.2598451971677767
0.6300000000000001,-0.99,-0.2737273277398918
0.6400000000000001,-0.99,-0.28652918160353835
0.6500000000000001,-0.99,-0.29820023569012727
0.6600000000000001,-0.99,-0.308694429681176
0.6699999999999999,-0.99,-0.31797034778734323
0.6799999999999999,-0.99,-0.32599138219762736
0.69,-0.99,-0.33272587755367383
0.7,-0.99,-0.3381472558790101
0.71,-0.99,-0.3422341214701782
0.72,-0.99,-0.34497034533580134
0.73,-0.99,-0.3463451288503435
0.74,-0.99,-0.3463530463713514
0.75,-0.99,-0.3449940666519874
0.76,-0.99,-0.34227355296434436
0.77,-0.99,-0.33820224193306353
0.78,-0.99,-0.33279620116277997
0.79,-0.99,-0.32607676582662876
0.8,-0.99,-0.3180704544660639
0.81,-0.99,-0.3088088643342899
0.8200000000000001,-0.99,-0.29832854669633874
0.8300000000000001,-0.99,-0.2866708625779256
0.8400000000000001,-0.99,-0.27388181953237656
0.8500000000000001,-0.99,-0.2600118900698349
0.8600000000000001,-0.99,-0.24511581246532066
0.8700000000000001,-0.99,-0.22925237473176854
0.8800000000000001,-0.99,-0.2124841826105977
0.8900000000000001,-0.99,-0.1948774124954518
0.9000000000000001,-0.99,-0.17650155026420733
0.9100000000000001,-0.99,-0.15742911704995827
0.9199999999999999,-0.99,-0.1377353830332351
0.9299999999999999,-0.99,-0.11749807038499079
0.94,-0.99,-0.09679704653269916
0.95,-0.99,-0.07571400896010697
0.96,-0.99,-0.054332162784589695
0.97,-0.99,-0.032735892384565674
0.98,-0.99,-0.011010428372906417
0.99,-0.99,0.010758488769354455
1.0,-0.99,0.032484947071528686

-1.0,-0.98,0.05078267224612243
-0.99,-0.98,0.07546801549507905
-0.98,-0.98,0.09985552096493316
-0.97,-0.98,0.12384894231318676
-0.96,-0.98,0.14735358846733002
-0.95,-0.98,0.17027669732724368
-0.94,-0.98,0.19252780185482998
-0.9299999999999999,-0.98,0.21401908710608136
-0.92,-0.98,0.23466573679654537
-0.91,-0.98,0.2543862680324505
-0.9,-0.98,0.2731028528864627
-0.89,-0.98,0.29074162554895755
-0.88,-0.98,0.3072329738426244
-0.87,-0.98,0.32251181394992884
-0.86,-0.98,0.3365178472692052
-0.85,-0.98,0.34919579838569037
-0.84,-0.98,0.360495633218333
-0.83,-0.98,0.3703727564814514
-0.8200000000000001,-0.98,0.37878818768195444
-0.81,-0.98,0.38570871495753917
-0.8,-0.98,0.39110702614873644
-0.79,-0.98,0.39496181658752877
-0.78,-0.98,0.3972578731771403
-0.77,-0.98,0.3979861344311803
-0.76,-0.98,0.39714372623519
-0.75,-0.98,0.3947339731894592
-0.74,-0.98,0.3907663854883482
-0.73,-0.98,0.38525662138789485
-0.72,-0.98,0.3782264254098313
-0.71,-0.98,0.36970354252589277
-0.7,-0.98,0.3597216086610869
-0.69,-0.98,0.3483200179480662
-0.6799999999999999,-0.98,0.3355437672564839
-0.6699999999999999,-0.98,0.3214432786109058
-0.6599999999999999,-0.98,0.30607420019811526
-0.6499999999999999,-0.98,0.28949718674914443
-0.64,-0.98,0.2717776601627582
-0.63,-0.98,0.2529855513151121
-0.62,-0.98,0.2331950240745297
-0.61,-0.98,0.21248418261059765
-0.6,-0.98,0.1909347631526907
-0.59,-0.98,0.1686318114144158
-0.5800000000000001,-0.98,0.14566334695703492
-0.5700000000000001,-0.98,0.12212001581646752
-0.56,-0.98,0.09809473276480091
-0.55,-0.98,0.07368231461813204
-0.54,-0.98,0.048979106037913
-0.53,-0.98,0.024082599302587344
-0.52,-0.98,-0.0009089504498925056
-0.51,-0.98,-0.025896912990206605
-0.5,-0.98,-0.05078267224612251
-0.49,-0.98,-0.07546801549507903
-0.48,-0.98,-0.09985552096493325
-0.47,-0.98,-0.12384894231318685
-0.45999999999999996,-0.98,-0.14735358846733002
-0.44999999999999996,-0.98,-0.1702766973272437
-0.43999999999999995,-0.98,-0.1925278018548301
-0.42999999999999994,-0.98,-0.21401908710608145
-0.42000000000000004,-0.98,-0.23466573679654518
-0.41000000000000003,-0.98,-0.2543862680324507
-0.4,-0.98,-0.2731028528864628
-0.39,-0.98,-0.29074162554895755
-0.38,-0.98,-0.30723297384262443
-0.37,-0.98,-0.3225118139499286
-0.36,-0.98,-0.33651784726920525
-0.35,-0.98,-0.3491957983856904
-0.33999999999999997,-0.98,-0.3604956332183331
-0.32999999999999996,-0.98,-0.3703727564814511
-0.31999999999999995,-0.98,-0.37878818768195466
-0.30999999999999994,-0.98,-0.38570871495753917
-0.29999999999999993,-0.98,-0.39110702614873644
-0.29000000000000004,-0.98,-0.394961816587529
-0.28,-0.98,-0.39725787317714034
-0.27,-0.98,-0.39798613443118025
-0.26,-0.98,-0.3971437262351901
-0.25,-0.98,-0.39473397318945935
-0.24,-0.98,-0.39076638548834824
-0.22999999999999998,-0.98,-0.38525662138789485
-0.21999999999999997,-0.98,-0.3782264254098316
-0.20999999999999996,-0.98,-0.36970354252589277
-0.19999999999999996,-0.98,-0.3597216086610868
-0.18999999999999995,-0.98,-0.3483200179480664
-0.17999999999999994,-0.98,-0.3355437672564838
-0.16999999999999993,-0.98,-0.3214432786109056
-0.16000000000000003,-0.98,-0.3060742001981156
-0.15000000000000002,-0.98,-0.2894971867491444
-0.14,-0.98,-0.2717776601627583
-0.13,-0.98,-0.2529855513151122
-0.12,-0.98,-0.23319502407452966
-0.10999999999999999,-0.98,-0.21248418261059762
-0.09999999999999998,-0.98,-0.1909347631526906
-0.08999999999999997,-0.98,-0.1686318114144159
-0.07999999999999996,-0.98,-0.14566334695703484
-0.06999999999999995,-0.98,-0.12212001581646749
-0.05999999999999994,-0.98,-0.09809473276480084
-0.04999999999999993,-0.98,-0.07368231461813199
-0.040000000000000036,-0.98,-0.04897910603791294
-0.030000000000000027,-0.98,-0.024082599302587326
-0.020000000000000018,-0.98,0.0009089504498925524
-0.010000000000000009,-0.98,0.025896912990206643
0.0,-0.98,0.05078267224612253
0.010000000000000009,-0.98,0.07546801549507907
0.020000000000000018,-0.98,0.09985552096493322
0.030000000000000027,-0.98,0.12384894231318691
0.040000000000000036,-0.98,0.14735358846733007
0.050000000000000044,-0.98,0.17027669732724368
0.06000000000000005,-0.98,0.19252780185483004
0.07000000000000006,-0.98,0.21401908710608133
0.08000000000000007,-0.98,0.23466573679654523
0.09000000000000008,-0.98,0.25438626803245057
0.10000000000000009,-0.98,0.27310285288646285
0.1100000000000001,-0.98,0.2907416255489573
0.1200000000000001,-0.98,0.3072329738426242
0.13000000000000012,-0.98,0.32251181394992884
0.14000000000000012,-0.98,0.33651784726920525
0.15000000000000013,-0.98,0.3491957983856906
0.15999999999999992,-0.98,0.3604956332183328
0.16999999999999993,-0.98,0.37037275648145135
0.17999999999999994,-0.98,0.37878818768195444
0.18999999999999995,-0.98,0.385708714957539
0.19999999999999996,-0.98,0.3911070261487366
0.20999999999999996,-0.98,0.39496181658752916
0.21999999999999997,-0.98,0.3972578731771402
0.22999999999999998,-0.98,0.39798613443118025
0.24,-0.98,0.39714372623519
0.25,-0.98,0.3947339731894592
0.26,-0.98,0.39076638548834836
0.27,-0.98,0.3852566213878946
0.28,-0.98,0.37822642540983153
0.29000000000000004,-0.98,0.3697035425258928
0.30000000000000004,-0.98,0.35972160866108693
0.31000000000000005,-0.98,0.3483200179480664
0.32000000000000006,-0.98,0.3355437672564841
0.33000000000000007,-0.98,0.3214432786109059
0.3400000000000001,-0.98,0.3060742001981157
0.3500000000000001,-0.98,0.2894971867491443
0.3600000000000001,-0.98,0.2717776601627584
0.3700000000000001,-0.98,0.252985551315112
0.3800000000000001,-0.98,0.23319502407452952
0.3900000000000001,-0.98,0.21248418261059762
0.40000000000000013,-0.98,0.19093476315269056
0.4099999999999999,-0.98,0.16863181141441577
0.41999999999999993,-0.98,0.1456633469570347
0.42999999999999994,-0.98,0.12212001581646738
0.43999999999999995,-0.98,0.09809473276480074
0.44999999999999996,-0.98,0.07368231461813202
0.45999999999999996,-0.98,0.048979106037912945
0.47,-0.98,0.02408259930258734
0.48,-0.98,-0.0009089504498925134
0.49,-0.98,-0.025896912990206623
0.5,-0.98,-0.050782672246122526
0.51,-0.98,-0.07546801549507909
0.52,-0.98,-0.09985552096493311
0.53,-0.98,-0.1238489423131868
0.54,-0.98,-0.14735358846733004
0.55,-0.98,-0.17027669732724376
0.56,-0.98,-0.19252780185483004
0.5700000000000001,-0.98,-0.21401908710608147
0.5800000000000001,-0.98,-0.23466573679654545
0.5900000000000001,-0.98,-0.2543862680324507
0.6000000000000001,-0.98,-0.2731028528864628
0.6100000000000001,-0.98,-0.29074162554895755
0.6200000000000001,-0.98,-0.30723297384262427
0.6300000000000001,-0.98,-0.3225118139499288
0.6400000000000001,-0.98,-0.3365178472692052
0.6500000000000001,-0.98,-0.34919579838569054
0.6600000000000001,-0.98,-0.360495633218333
0.6699999999999999,-0.98,-0.37037275648145107
0.6799999999999999,-0.98,-0.3787881876819545
0.69,-0.98,-0.3857087149575392
0.7,-0.98,-0.39110702614873644
0.71,-0.98,-0.3949618165875288
0.72,-0.98,-0.39725787317714034
0.73,-0.98,-0.39798613443118014
0.74,-0.98,-0.3971437262351901
0.75,-0.98,-0.39473397318945924
0.76,-0.98,-0.39076638548834824
0.77,-0.98,-0.38525662138789474
0.78,-0.98,-0.37822642540983137
0.79,-0.98,-0.36970354252589266
0.8,-0.98,-0.3597216086610867
0.81,-0.98,-0.3483200179480662
0.8200000000000001,-0.98,-0.3355437672564838
0.8300000000000001,-0.98,-0.3214432786109056
0.8400000000000001,-0.98,-0.3060742001981155
0.8500000000000001,-0.98,-0.2894971867491444
0.8600000000000001,-0.98,-0.2717776601627583
0.8700000000000001,-0.98,-0.25298555131511224
0.8800000000000001,-0.98,-0.23319502407452972
0.8900000000000001,-0.98,-0.2124841826105976
0.9000000000000001,-0.98,-0.19093476315269076
0.9100000000000001,-0.98,-0.1686318114144159
0.9199999999999999,-0.98,-0.14566334695703492
0.9299999999999999,-0.98,-0.12212001581646761
0.94,-0.98,-0.0980947327648009
0.95,-0.98,-0.07368231461813211
0.96,-0.98,-0.048979106037913035
0.97,-0.98,-0.024082599302587417
0.98,-0.98,0.0009089504498924431
0.99,-0.98,0.025896912990206557
1.0,-0.98,0.05078267224612243

-1.0,-0.97,0.06887998141375691
-0.99,-0.97,0.09655499108248342
-0.98,-0.97,0.12384894231318677
-0.97,-0.97,0.15065411834977976
-0.96,-0.97,0.17686473140856582
-0.95,-0.97,0.202377340174292
-0.94,-0.97,0.22709125803576238
-0.9299999999999999,-0.97,0.25090895044989275
-0.92,-0.97,0.273736419865993
-0.91,-0.97,0.29548357669115666
-0.9,-0.97,0.31606459483272603
-0.89,-0.97,0.3353982504146684
-0.88,-0.97,0.3534082423311097
-0.87,-0.97,0.3700234933719378
-0.86,-0.97,0.3851784307320807
-0.85,-0.97,0.398813244797411
-0.84,-0.97,0.41087412518596594
-0.83,-0.97,0.4213134731129442
-0.8200000000000001,-0.97,0.4300900892413629
-0.81,-0.97,0.43716933627701715
-0.8,-0.97,0.44252327566605776
-0.79,-0.97,0.4461307778556985
-0.78,-0.97,0.44797760568290784
-0.77,-0.97,0.44805647056198683
-0.76,-0.97,0.44636706124928793
-0.75,-0.97,0.44291604507155075
-0.74,-0.97,0.4377170416130096
-0.73,-0.97,0.4307905689651161
-0.72,-0.97,0.42216396275100765
-0.71,-0.97,0.41187126824428943
-0.7,-0.97,0.39995310600789497
-0.69,-0.97,0.3864565115832807
-0.6799999999999999,-0.97,0.37143474986263325
-0.6699999999999999,-0.97,0.3549471048766735
-0.6599999999999999,-0.97,0.3370586458276733
-0.6499999999999999,-0.97,0.3178399702910388
-0.64,-0.97,0.29736692559893574
-0.63,-0.97,0.2757203095055194
-0.62,-0.97,0.25298555131511213
-0.61,-0.97,0.22925237473176863
-0.6,-0.97,0.20461444376080612
-0.59,-0.97,0.17916899305976738
-0.5800000000000001,-0.97,0.15301644419764832
-0.5700000000000001,-0.97,0.12626000933684506
-0.56,-0.97,0.09900528390190046
-0.55,-0.97,0.07135982984260691
-0.54,-0.97,0.043432751136129745
-0.53,-0.97,0.015334263203454865
-0.52,-0.97,-0.012824742060525607
-0.51,-0.97,-0.04093313392666051
-0.5,-0.97,-0.06887998141375692
-0.49,-0.97,-0.09655499108248351
-0.48,-0.97,-0.12384894231318687
-0.47,-0.97,-0.1506541183497798
-0.45999999999999996,-0.97,-0.17686473140856582
-0.44999999999999996,-0.97,-0.2023773401742921
-0.43999999999999995,-0.97,-0.22709125803576247
-0.42999999999999994,-0.97,-0.2509089504498926
-0.42000000000000004,-0.97,-0.273736419865993
-0.41000000000000003,-0.97,-0.29548357669115677
-0.4,-0.97,-0.316064594832726
-0.39,-0.97,-0.33539825041466853
-0.38,-0.97,-0.35340824233110946
-0.37,-0.97,-0.37002349337193774
-0.36,-0.97,-0.3851784307320807
-0.35,-0.97,-0.398813244797411
-0.33999999999999997,-0.97,-0.4108741251859657
-0.32999999999999996,-0.97,-0.42131347311294437
-0.31999999999999995,-0.97,-0.4300900892413629
-0.30999999999999994,-0.97,-0.43716933627701704
-0.29999999999999993,-0.97,-0.442523275666058
-0.29000000000000004,-0.97,-0.44613077785569855
-0.28,-0.97,-0.44797760568290773
-0.27,-0.97,-0.44805647056198694
-0.26,-0.97,-0.4463670612492882
-0.25,-0.97,-0.4429160450715509
-0.24,-0.97,-0.43771704161300967
-0.22999999999999998,-0.97,-0.4307905689651163
-0.21999999999999997,-0.97,-0.42216396275100765
-0.20999999999999996,-0.97,-0.41187126824428955
-0.19999999999999996,-0.97,-0.39995310600789513
-0.18999999999999995,-0.97,-0.3864565115832807
-0.17999999999999994,-0.97,-0.37143474986263303
-0.16999999999999993,-0.97,-0.3549471048766739
-0.16000000000000003,-0.97,-0.33705864582767336
-0.15000000000000002,-0.97,-0.3178399702910389
-0.14,-0.97,-0.2973669255989359
-0.13,-0.97,-0.2757203095055194
-0.12,-0.97,-0.25298555131511224
-0.10999999999999999,-0.97,-0.22925237473176846
-0.09999999999999998,-0.97,-0.20461444376080618
-0.08999999999999997,-0.97,-0.1791689930597673
-0.07999999999999996,-0.97,-0.1530164441976483
-0.06999999999999995,-0.97,-0.12626000933684495
-0.05999999999999994,-0.97,-0.09900528390190041
-0.04999999999999993,-0.97,-0.07135982984260686
-0.040000000000000036,-0.97,-0.04343275113612974
-0.030000000000000027,-0.97,-0.015334263203454804
-0.020000000000000018,-0.97,0.01282474206052565
-0.010000000000000009,-0.97,0.040933133926660537
0.0,-0.97,0.06887998141375695
0.010000000000000009,-0.97,0.09655499108248347
0.020000000000000018,-0.97,0.1238489423131869
0.030000000000000027,-0.97,0.15065411834977982
0.040000000000000036,-0.97,0.17686473140856582
0.050000000000000044,-0.97,0.20237734017429204
0.06000000000000005,-0.97,0.22709125803576233
0.07000000000000006,-0.97,0.25090895044989264
0.08000000000000007,-0.97,0.27373641986599295
0.09000000000000008,-0.97,0.29548357669115677
0.10000000000000009,-0.97,0.31606459483272575
0.1100000000000001,-0.97,0.3353982504146683
0.1200000000000001,-0.97,0.3534082423311097
0.13000000000000012,-0.97,0.3700234933719377
0.14000000000000012,-0.97,0.3851784307320808
0.15000000000000013,-0.97,0.39881324479741076
0.15999999999999992,-0.97,0.4108741251859659
0.16999999999999993,-0.97,0.4213134731129442
0.17999999999999994,-0.97,0.4300900892413626
0.18999999999999995,-0.97,0.4371693362770173
0.19999999999999996,-0.97,0.4425232756660581
0.20999999999999996,-0.97,0.44613077785569843
0.21999999999999997,-0.97,0.44797760568290773
0.22999999999999998,-0.97,0.44805647056198694
0.24,-0.97,0.44636706124928804
0.25,-0.97,0.4429160450715509
0.26,-0.97,0.43771704161300945
0.27,-0.97,0.43079056896511625
0.28,-0.97,0.4221639627510077
0.29000000000000004,-0.97,0.41187126824428955
0.30000000000000004,-0.97,0.39995310600789513
0.31000000000000005,-0.97,0.3864565115832809
0.32000000000000006,-0.97,0.37143474986263336
0.33000000000000007,-0.97,0.354947104876674
0.3400000000000001,-0.97,0.3370586458276733
0.3500000000000001,-0.97,0.317839970291039
0.3600000000000001,-0.97,0.2973669255989357
0.3700000000000001,-0.97,0.2757203095055192
0.3800000000000001,-0.97,0.25298555131511224
0.3900000000000001,-0.97,0.22925237473176852
0.40000000000000013,-0.97,0.20461444376080606
0.4099999999999999,-0.97,0.17916899305976713
0.41999999999999993,-0.97,0.15301644419764818
0.42999999999999994,-0.97,0.1262600093368448
0.43999999999999995,-0.97,0.09900528390190044
0.44999999999999996,-0.97,0.07135982984260686
0.45999999999999996,-0.97,0.04343275113612971
0.47,-0.97,0.015334263203454839
0.48,-0.97,-0.012824742060525633
0.49,-0.97,-0.04093313392666052
0.5,-0.97,-0.06887998141375695
0.51,-0.97,-0.09655499108248339
0.52,-0.97,-0.1238489423131868
0.53,-0.97,-0.15065411834977982
0.54,-0.97,-0.17686473140856587
0.55,-0.97,-0.20237734017429204
0.56,-0.97,-0.2270912580357625
0.5700000000000001,-0.97,-0.2509089504498929
0.5800000000000001,-0.97,-0.273736419865993
0.5900000000000001,-0.97,-0.29548357669115677
0.6000000000000001,-0.97,-0.316064594832726