TITLE = "Solution" 
VARIABLES = "x", "y", "sol" 
ZONE STRANDID=1, SOLUTIONTIME= 0.6000000000000004, I= 201, J =201, DATAPACKING=POINT 
-1.0,-1.0,0.2399766831817836
-0.99,-1.0,0.2096444776350275
-0.98,-1.0,0.17848490111249732
-0.97,-1.0,0.14662092622727102
-0.96,-1.0,0.11417830553095516
-0.95,-1.0,0.08128507522581463
-0.94,-1.0,0.048071049864376235
-0.9299999999999999,-1.0,0.014667310030696866
-0.92,-1.0,-0.018794314974817157
-0.91,-1.0,-0.05218176740543135
-0.9,-1.0,-0.08536328223967818
-0.89,-1.0,-0.118207907197699
-0.88,-1.0,-0.1505860195500664
-0.87,-1.0,-0.182369837679478
-0.86,-1.0,-0.21343392537642233
-0.85,-1.0,-0.24365568687859118
-0.84,-1.0,-0.2729158507003453
-0.83,-1.0,-0.30109894034277707
-0.8200000000000001,-1.0,-0.3280937300266966
-0.81,-1.0,-0.3537936836499685
-0.8,-1.0,-0.378097375236833
-0.79,-1.0,-0.40090888921989787
-0.78,-1.0,-0.4221381989750608
-0.77,-1.0,-0.4417015221154674
-0.76,-1.0,-0.459521651142315
-0.75,-1.0,-0.4755282581475766
-0.74,-1.0,-0.4896581723661263
-0.73,-1.0,-0.5018556294818866
-0.72,-1.0,-0.5120724917041098
-0.71,-1.0,-0.5202684377452453
-0.7,-1.0,-0.5264111219506404
-0.69,-1.0,-0.5304763019520616
-0.6799999999999999,-1.0,-0.5324479343412483
-0.6699999999999999,-1.0,-0.5323182379859119
-0.6599999999999999,-1.0,-0.5300877247383154
-0.6499999999999999,-1.0,-0.5257651974152222
-0.64,-1.0,-0.5193677150572016
-0.63,-1.0,-0.5109205256043893
-0.62,-1.0,-0.5004569662544016
-0.61,-1.0,-0.4880183318956473
-0.6,-1.0,-0.4736537121352692
-0.59,-1.0,-0.4574197975648904
-0.5800000000000001,-1.0,-0.439380656028751
-0.5700000000000001,-1.0,-0.41960747977719315
-0.56,-1.0,-0.39817830450337766
-0.55,-1.0,-0.3751777013720511
-0.54,-1.0,-0.3506964432557965
-0.53,-1.0,-0.3248311464959764
-0.52,-1.0,-0.29768388960217107
-0.51,-1.0,-0.2693618103949391
-0.5,-1.0,-0.2399766831817836
-0.49,-1.0,-0.20964447763502753
-0.48,-1.0,-0.17848490111249732
-0.47,-1.0,-0.14662092622727094
-0.45999999999999996,-1.0,-0.11417830553095515
-0.44999999999999996,-1.0,-0.0812850752258146
-0.43999999999999995,-1.0,-0.04807104986437623
-0.42999999999999994,-1.0,-0.01466731003069677
-0.42000000000000004,-1.0,0.01879431497481724
-0.41000000000000003,-1.0,0.05218176740543142
-0.4,-1.0,0.08536328223967822
-0.39,-1.0,0.11820790719769907
-0.38,-1.0,0.1505860195500664
-0.37,-1.0,0.1823698376794781
-0.36,-1.0,0.21343392537642225
-0.35,-1.0,0.24365568687859127
-0.33999999999999997,-1.0,0.2729158507003451
-0.32999999999999996,-1.0,0.30109894034277707
-0.31999999999999995,-1.0,0.3280937300266967
-0.30999999999999994,-1.0,0.35379368364996844
-0.29999999999999993,-1.0,0.37809737523683307
-0.29000000000000004,-1.0,0.40090888921989787
-0.28,-1.0,0.4221381989750608
-0.27,-1.0,0.4417015221154674
-0.26,-1.0,0.4595216511423151
-0.25,-1.0,0.4755282581475769
-0.24,-1.0,0.4896581723661263
-0.22999999999999998,-1.0,0.5018556294818867
-0.21999999999999997,-1.0,0.51207249170411
-0.20999999999999996,-1.0,0.5202684377452456
-0.19999999999999996,-1.0,0.5264111219506407
-0.18999999999999995,-1.0,0.5304763019520617
-0.17999999999999994,-1.0,0.532447934341248
-0.16999999999999993,-1.0,0.5323182379859117
-0.16000000000000003,-1.0,0.5300877247383156
-0.15000000000000002,-1.0,0.525765197415222
-0.14,-1.0,0.5193677150572017
-0.13,-1.0,0.5109205256043894
-0.12,-1.0,0.5004569662544014
-0.10999999999999999,-1.0,0.48801833189564736
-0.09999999999999998,-1.0,0.4736537121352691
-0.08999999999999997,-1.0,0.4574197975648905
-0.07999999999999996,-1.0,0.43938065602875076
-0.06999999999999995,-1.0,0.41960747977719315
-0.05999999999999994,-1.0,0.3981783045033775
-0.04999999999999993,-1.0,0.3751777013720511
-0.040000000000000036,-1.0,0.3506964432557967
-0.030000000000000027,-1.0,0.32483114649597633
-0.020000000000000018,-1.0,0.2976838896021713
-0.010000000000000009,-1.0,0.26936181039493906
0.0,-1.0,0.23997668318178367
0.010000000000000009,-1.0,0.20964447763502736
0.020000000000000018,-1.0,0.17848490111249726
0.030000000000000027,-1.0,0.1466209262272709
0.040000000000000036,-1.0,0.11417830553095513
0.050000000000000044,-1.0,0.08128507522581456
0.06000000000000005,-1.0,0.04807104986437615
0.07000000000000006,-1.0,0.014667310030696736
0.08000000000000007,-1.0,-0.018794314974817285
0.09000000000000008,-1.0,-0.05218176740543148
0.10000000000000009,-1.0,-0.08536328223967826
0.1100000000000001,-1.0,-0.11820790719769919
0.1200000000000001,-1.0,-0.15058601955006645
0.13000000000000012,-1.0,-0.1823698376794781
0.14000000000000012,-1.0,-0.21343392537642242
0.15000000000000013,-1.0,-0.24365568687859115
0.15999999999999992,-1.0,-0.272915850700345
0.16999999999999993,-1.0,-0.30109894034277684
0.17999999999999994,-1.0,-0.3280937300266966
0.18999999999999995,-1.0,-0.3537936836499685
0.19999999999999996,-1.0,-0.3780973752368332
0.20999999999999996,-1.0,-0.4009088892198976
0.21999999999999997,-1.0,-0.4221381989750609
0.22999999999999998,-1.0,-0.4417015221154675
0.24,-1.0,-0.45952165114231497
0.25,-1.0,-0.4755282581475768
0.26,-1.0,-0.4896581723661264
0.27,-1.0,-0.5018556294818866
0.28,-1.0,-0.5120724917041097
0.29000000000000004,-1.0,-0.5202684377452453
0.30000000000000004,-1.0,-0.5264111219506407
0.31000000000000005,-1.0,-0.5304763019520617
0.32000000000000006,-1.0,-0.532447934341248
0.33000000000000007,-1.0,-0.5323182379859119
0.3400000000000001,-1.0,-0.5300877247383153
0.3500000000000001,-1.0,-0.5257651974152222
0.3600000000000001,-1.0,-0.5193677150572018
0.3700000000000001,-1.0,-0.5109205256043894
0.3800000000000001,-1.0,-0.5004569662544015
0.3900000000000001,-1.0,-0.4880183318956476
0.40000000000000013,-1.0,-0.4736537121352691
0.4099999999999999,-1.0,-0.4574197975648905
0.41999999999999993,-1.0,-0.43938065602875076
0.42999999999999994,-1.0,-0.41960747977719315
0.43999999999999995,-1.0,-0.39817830450337766
0.44999999999999996,-1.0,-0.375177701372051
0.45999999999999996,-1.0,-0.35069644325579674
0.47,-1.0,-0.32483114649597644
0.48,-1.0,-0.29768388960217107
0.49,-1.0,-0.26936181039493906
0.5,-1.0,-0.23997668318178345
0.51,-1.0,-0.20964447763502742
0.52,-1.0,-0.17848490111249724
0.53,-1.0,-0.14662092622727088
0.54,-1.0,-0.11417830553095512
0.55,-1.0,-0.08128507522581449
0.56,-1.0,-0.04807104986437614
0.5700000000000001,-1.0,-0.014667310030696726
0.5800000000000001,-1.0,0.018794314974817254
0.5900000000000001,-1.0,0.05218176740543148
0.6000000000000001,-1.0,0.08536328223967832
0.6100000000000001,-1.0,0.11820790719769902
0.6200000000000001,-1.0,0.15058601955006654
0.6300000000000001,-1.0,0.18236983767947804
0.6400000000000001,-1.0,0.21343392537642236
0.6500000000000001,-1.0,0.24365568687859124
0.6600000000000001,-1.0,0.2729158507003453
0.6699999999999999,-1.0,0.30109894034277696
0.6799999999999999,-1.0,0.32809373002669673
0.69,-1.0,0.35379368364996855
0.7,-1.0,0.3780973752368332
0.71,-1.0,0.4009088892198978
0.72,-1.0,0.4221381989750609
0.73,-1.0,0.44170152211546754
0.74,-1.0,0.459521651142315
0.75,-1.0,0.4755282581475767
0.76,-1.0,0.4896581723661262
0.77,-1.0,0.5018556294818867
0.78,-1.0,0.51207249170411
0.79,-1.0,0.5202684377452451
0.8,-1.0,0.5264111219506404
0.81,-1.0,0.5304763019520616
0.8200000000000001,-1.0,0.5324479343412478
0.8300000000000001,-1.0,0.5323182379859119
0.8400000000000001,-1.0,0.5300877247383153
0.8500000000000001,-1.0,0.5257651974152225
0.8600000000000001,-1.0,0.5193677150572016
0.8700000000000001,-1.0,0.5109205256043894
0.8800000000000001,-1.0,0.5004569662544016
0.8900000000000001,-1.0,0.48801833189564714
0.9000000000000001,-1.0,0.4736537121352693
0.9100000000000001,-1.0,0.45741979756489043
0.9199999999999999,-1.0,0.43938065602875076
0.9299999999999999,-1.0,0.41960747977719304
0.94,-1.0,0.39817830450337743
0.95,-1.0,0.37517770137205103
0.96,-1.0,0.3506964432557965
0.97,-1.0,0.32483114649597644
0.98,-1.0,0.2976838896021712
0.99,-1.0,0.26936181039493917
1.0,-1.0,0.2399766831817836

-1.0,-0.99,0.20964447763502747
-0.99,-0.99,0.18159553458672098
-0.98,-0.99,0.1528299169265089
-0.97,-0.99,0.12346114940553532
-0.96,-0.99,0.09360513713189211
-0.95,-0.99,0.06337970814610865
-0.94,-0.99,0.03290414840770688
-0.9299999999999999,-0.99,0.0022987310280153583
-0.92,-0.99,-0.028315758392853444
-0.91,-0.99,-0.05881849845158515
-0.9,-0.99,-0.08908910876854428
-0.89,-0.99,-0.11900812507413629
-0.88,-0.99,-0.14845747067970128
-0.87,-0.99,-0.1773209224722604
-0.86,-0.99,-0.20548456959404504
-0.85,-0.99,-0.23283726299661228
-0.84,-0.99,-0.2592710540953589
-0.83,-0.99,-0.2846816207932684
-0.8200000000000001,-0.99,-0.3089686791925683
-0.81,-0.99,-0.3320363793694576
-0.8,-0.99,-0.3537936836499685
-0.79,-0.99,-0.37415472589407206
-0.78,-0.99,-0.39303915037010634
-0.77,-0.99,-0.41037242888213743
-0.76,-0.99,-0.4260861548986999
-0.75,-0.99,-0.44011831352212527
-0.74,-0.99,-0.4524135262330099
-0.73,-0.99,-0.46292326944393236
-0.72,-0.99,-0.4716060659998842
-0.71,-0.99,-0.47842764886965167
-0.7,-0.99,-0.48336109638213237
-0.69,-0.99,-0.48638693847387277
-0.6799999999999999,-0.99,-0.4874932335285117
-0.6699999999999999,-0.99,-0.48667561550488714
-0.6599999999999999,-0.99,-0.48393731116780414
-0.6499999999999999,-0.99,-0.4792891273534687
-0.64,-0.99,-0.47274940831984313
-0.63,-0.99,-0.46434396335023964
-0.62,-0.99,-0.45410596489587063
-0.61,-0.99,-0.44207581765933907
-0.6,-0.99,-0.42830099913573577
-0.59,-0.99,-0.412835872240658
-0.5800000000000001,-0.99,-0.3957414707646153
-0.5700000000000001,-0.99,-0.37708525850054525
-0.56,-0.99,-0.35694086299504113
-0.55,-0.99,-0.3353877849740642
-0.54,-0.99,-0.31251108458989896
-0.53,-0.99,-0.2884010457275909
-0.52,-0.99,-0.26315281969570126
-0.51,-0.99,-0.23686604970755995
-0.5,-0.99,-0.2096444776350275
-0.49,-0.99,-0.181595534586721
-0.48,-0.99,-0.1528299169265088
-0.47,-0.99,-0.12346114940553532
-0.45999999999999996,-0.99,-0.09360513713189209
-0.44999999999999996,-0.99,-0.06337970814610863
-0.43999999999999995,-0.99,-0.03290414840770678
-0.42999999999999994,-0.99,-0.002298731028015276
-0.42000000000000004,-0.99,0.028315758392853507
-0.41000000000000003,-0.99,0.0588184984515852
-0.4,-0.99,0.08908910876854435
-0.39,-0.99,0.1190081250741363
-0.38,-0.99,0.14845747067970133
-0.37,-0.99,0.17732092247226025
-0.36,-0.99,0.2054845695940451
-0.35,-0.99,0.23283726299661223
-0.33999999999999997,-0.99,0.2592710540953589
-0.32999999999999996,-0.99,0.2846816207932684
-0.31999999999999995,-0.99,0.3089686791925683
-0.30999999999999994,-0.99,0.3320363793694578
-0.29999999999999993,-0.99,0.35379368364996855
-0.29000000000000004,-0.99,0.37415472589407206
-0.28,-0.99,0.3930391503701063
-0.27,-0.99,0.41037242888213754
-0.26,-0.99,0.4260861548987
-0.25,-0.99,0.4401183135221252
-0.24,-0.99,0.4524135262330099
-0.22999999999999998,-0.99,0.46292326944393253
-0.21999999999999997,-0.99,0.47160606599988447
-0.20999999999999996,-0.99,0.47842764886965206
-0.19999999999999996,-0.99,0.4833610963821324
-0.18999999999999995,-0.99,0.4863869384738728
-0.17999999999999994,-0.99,0.48749323352851165
-0.16999999999999993,-0.99,0.48667561550488736
-0.16000000000000003,-0.99,0.4839373111678039
-0.15000000000000002,-0.99,0.4792891273534688
-0.14,-0.99,0.4727494083198433
-0.13,-0.99,0.4643439633502394
-0.12,-0.99,0.4541059648958707
-0.10999999999999999,-0.99,0.442075817659339
-0.09999999999999998,-0.99,0.42830099913573577
-0.08999999999999997,-0.99,0.4128358722406578
-0.07999999999999996,-0.99,0.3957414707646153
-0.06999999999999995,-0.99,0.3770852585005451
-0.05999999999999994,-0.99,0.35694086299504113
-0.04999999999999993,-0.99,0.3353877849740643
-0.040000000000000036,-0.99,0.3125110845898988
-0.030000000000000027,-0.99,0.2884010457275911
-0.020000000000000018,-0.99,0.2631528196957012
-0.010000000000000009,-0.99,0.23686604970755998
0.0,-0.99,0.20964447763502742
0.010000000000000009,-0.99,0.18159553458672098
0.020000000000000018,-0.99,0.15282991692650882
0.030000000000000027,-0.99,0.12346114940553532
0.040000000000000036,-0.99,0.09360513713189206
0.050000000000000044,-0.99,0.06337970814610856
0.06000000000000005,-0.99,0.03290414840770676
0.07000000000000006,-0.99,0.00229873102801523
0.08000000000000007,-0.99,-0.028315758392853562
0.09000000000000008,-0.99,-0.05881849845158523
0.10000000000000009,-0.99,-0.08908910876854445
0.1100000000000001,-0.99,-0.11900812507413636
0.1200000000000001,-0.99,-0.14845747067970136
0.13000000000000012,-0.99,-0.17732092247226042
0.14000000000000012,-0.99,-0.20548456959404504
0.15000000000000013,-0.99,-0.23283726299661214
0.15999999999999992,-0.99,-0.25927105409535867
0.16999999999999993,-0.99,-0.2846816207932684
0.17999999999999994,-0.99,-0.3089686791925683
0.18999999999999995,-0.99,-0.33203637936945785
0.19999999999999996,-0.99,-0.3537936836499683
0.20999999999999996,-0.99,-0.3741547258940721
0.21999999999999997,-0.99,-0.39303915037010634
0.22999999999999998,-0.99,-0.4103724288821375
0.24,-0.99,-0.4260861548987
0.25,-0.99,-0.44011831352212527
0.26,-0.99,-0.4524135262330098
0.27,-0.99,-0.4629232694439323
0.28,-0.99,-0.47160606599988425
0.29000000000000004,-0.99,-0.47842764886965183
0.30000000000000004,-0.99,-0.4833610963821324
0.31000000000000005,-0.99,-0.48638693847387265
0.32000000000000006,-0.99,-0.48749323352851176
0.33000000000000007,-0.99,-0.4866756155048871
0.3400000000000001,-0.99,-0.48393731116780414
0.3500000000000001,-0.99,-0.47928912735346896
0.3600000000000001,-0.99,-0.47274940831984336
0.3700000000000001,-0.99,-0.46434396335023953
0.3800000000000001,-0.99,-0.45410596489587085
0.3900000000000001,-0.99,-0.4420758176593391
0.40000000000000013,-0.99,-0.4283009991357358
0.4099999999999999,-0.99,-0.4128358722406578
0.41999999999999993,-0.99,-0.3957414707646153
0.42999999999999994,-0.99,-0.3770852585005452
0.43999999999999995,-0.99,-0.356940862995041
0.44999999999999996,-0.99,-0.33538778497406435
0.45999999999999996,-0.99,-0.31251108458989896
0.47,-0.99,-0.28840104572759095
0.48,-0.99,-0.2631528196957013
0.49,-0.99,-0.23686604970755984
0.5,-0.99,-0.20964447763502747
0.51,-0.99,-0.18159553458672092
0.52,-0.99,-0.15282991692650877
0.53,-0.99,-0.12346114940553532
0.54,-0.99,-0.09360513713189196
0.55,-0.99,-0.06337970814610852
0.56,-0.99,-0.03290414840770674
0.5700000000000001,-0.99,-0.0022987310280152577
0.5800000000000001,-0.99,0.028315758392853566
0.5900000000000001,-0.99,0.05881849845158529
0.6000000000000001,-0.99,0.08908910876854434
0.6100000000000001,-0.99,0.11900812507413638
0.6200000000000001,-0.99,0.1484574706797013
0.6300000000000001,-0.99,0.1773209224722604
0.6400000000000001,-0.99,0.2054845695940451
0.6500000000000001,-0.99,0.2328372629966123
0.6600000000000001,-0.99,0.2592710540953589
0.6699999999999999,-0.99,0.28468162079326853
0.6799999999999999,-0.99,0.30896867919256843
0.69,-0.99,0.33203637936945785
0.7,-0.99,0.35379368364996844
0.71,-0.99,0.37415472589407206
0.72,-0.99,0.3930391503701064
0.73,-0.99,0.41037242888213754
0.74,-0.99,0.4260861548986999
0.75,-0.99,0.4401183135221251
0.76,-0.99,0.4524135262330099
0.77,-0.99,0.46292326944393236
0.78,-0.99,0.471606065999884
0.79,-0.99,0.47842764886965167
0.8,-0.99,0.4833610963821324
0.81,-0.99,0.4863869384738725
0.8200000000000001,-0.99,0.4874932335285117
0.8300000000000001,-0.99,0.48667561550488725
0.8400000000000001,-0.99,0.4839373111678043
0.8500000000000001,-0.99,0.47928912735346874
0.8600000000000001,-0.99,0.47274940831984325
0.8700000000000001,-0.99,0.4643439633502396
0.8800000000000001,-0.99,0.4541059648958705
0.8900000000000001,-0.99,0.4420758176593393
0.9000000000000001,-0.99,0.42830099913573577
0.9100000000000001,-0.99,0.41283587224065776
0.9199999999999999,-0.99,0.3957414707646152
0.9299999999999999,-0.99,0.377085258500545
0.94,-0.99,0.356940862995041
0.95,-0.99,0.33538778497406413
0.96,-0.99,0.31251108458989896
0.97,-0.99,0.288401045727591
0.98,-0.99,0.2631528196957013
0.99,-0.99,0.23686604970755998
1.0,-0.99,0.20964447763502747

-1.0,-0.98,0.17848490111249732
-0.99,-0.98,0.1528299169265089
-0.98,-0.98,0.126571782879759
-0.97,-0.98,0.09981412783112997
-0.96,-0.98,0.07266255202068883
-0.95,-0.98,0.045224210313784374
-0.94,-0.98,0.017607389309747756
-0.9299999999999999,-0.98,-0.01007892001584343
-0.92,-0.98,-0.03772545244875264
-0.91,-0.98,-0.06522309975596638
-0.9,-0.98,-0.09246334128604328
-0.89,-0.98,-0.11933867225054656
-0.88,-0.98,-0.14574302799633027
-0.87,-0.98,-0.17157220259426834
-0.86,-0.98,-0.1967242600924503
-0.85,-0.98,-0.22109993681081264
-0.84,-0.98,-0.2446030330895355
-0.83,-0.98,-0.26714079294515025
-0.8200000000000001,-0.98,-0.2886242701360294
-0.81,-0.98,-0.3089686791925683
-0.8,-0.98,-0.32809373002669673
-0.79,-0.98,-0.345923944800177
-0.78,-0.98,-0.3623889558011487
-0.77,-0.98,-0.3774237831533387
-0.76,-0.98,-0.3909690912619478
-0.75,-0.98,-0.40297142298413313
-0.74,-0.98,-0.41338341059993133
-0.73,-0.98,-0.42216396275100754
-0.72,-0.98,-0.42927842660947413
-0.71,-0.98,-0.43469872463677117
-0.7,-0.98,-0.438403465392884
-0.69,-0.98,-0.44037802795858233
-0.6799999999999999,-0.98,-0.4406146196375118
-0.6699999999999999,-0.98,-0.43911230671040397
-0.6599999999999999,-0.98,-0.4358770181200404
-0.6499999999999999,-0.98,-0.430921522072425
-0.64,-0.98,-0.4242653756465068
-0.63,-0.98,-0.4159348476113246
-0.62,-0.98,-0.40596281475517704
-0.61,-0.98,-0.39438863213595915
-0.6,-0.98,-0.3812579777647279
-0.59,-0.98,-0.3666226723354607
-0.5800000000000001,-0.98,-0.3505404747124522
-0.5700000000000001,-0.98,-0.33307485398246317
-0.56,-0.98,-0.3142947389712317
-0.55,-0.98,-0.294274246212889
-0.54,-0.98,-0.2730923874458585
-0.53,-0.98,-0.2508327577896238
-0.52,-0.98,-0.22758320583297975
-0.51,-0.98,-0.20343548693578967
-0.5,-0.98,-0.17848490111249732
-0.49,-0.98,-0.15282991692650882
-0.48,-0.98,-0.126571782879759
-0.47,-0.98,-0.09981412783112996
-0.45999999999999996,-0.98,-0.0726625520206888
-0.44999999999999996,-0.98,-0.04522421031378426
-0.43999999999999995,-0.98,-0.01760738930974768
-0.42999999999999994,-0.98,0.01007892001584348
-0.42000000000000004,-0.98,0.037725452448752694
-0.41000000000000003,-0.98,0.06522309975596645
-0.4,-0.98,0.09246334128604328
-0.39,-0.98,0.11933867225054659
-0.38,-0.98,0.14574302799633015
-0.37,-0.98,0.1715722025942684
-0.36,-0.98,0.1967242600924503
-0.35,-0.98,0.2210999368108127
-0.33999999999999997,-0.98,0.24460303308953552
-0.32999999999999996,-0.98,0.2671407929451502
-0.31999999999999995,-0.98,0.2886242701360296
-0.30999999999999994,-0.98,0.3089686791925684
-0.29999999999999993,-0.98,0.32809373002669673
-0.29000000000000004,-0.98,0.3459239448001769
-0.28,-0.98,0.3623889558011487
-0.27,-0.98,0.37742378315333885
-0.26,-0.98,0.3909690912619477
-0.25,-0.98,0.4029714229841331
-0.24,-0.98,0.4133834105999314
-0.22999999999999998,-0.98,0.42216396275100776
-0.21999999999999997,-0.98,0.4292784266094746
-0.20999999999999996,-0.98,0.4346987246367714
-0.19999999999999996,-0.98,0.4384034653928841
-0.18999999999999995,-0.98,0.4403780279585824
-0.17999999999999994,-0.98,0.44061461963751203
-0.16999999999999993,-0.98,0.4391123067104038
-0.16000000000000003,-0.98,0.4358770181200406
-0.15000000000000002,-0.98,0.4309215220724252
-0.14,-0.98,0.42426537564650657
-0.13,-0.98,0.4159348476113246
-0.12,-0.98,0.4059628147551771
-0.10999999999999999,-0.98,0.3943886321359591
-0.09999999999999998,-0.98,0.38125797776472775
-0.08999999999999997,-0.98,0.36662267233546064
-0.07999999999999996,-0.98,0.3505404747124521
-0.06999999999999995,-0.98,0.3330748539824634
-0.05999999999999994,-0.98,0.3142947389712319
-0.04999999999999993,-0.98,0.29427424621288883
-0.040000000000000036,-0.98,0.2730923874458588
-0.030000000000000027,-0.98,0.2508327577896237
-0.020000000000000018,-0.98,0.2275832058329798
-0.010000000000000009,-0.98,0.20343548693578958
0.0,-0.98,0.17848490111249732
0.010000000000000009,-0.98,0.15282991692650888
0.020000000000000018,-0.98,0.126571782879759
0.030000000000000027,-0.98,0.09981412783112995
0.040000000000000036,-0.98,0.07266255202068875
0.050000000000000044,-0.98,0.045224210313784256
0.06000000000000005,-0.98,0.01760738930974763
0.07000000000000006,-0.98,-0.010078920015843543
0.08000000000000007,-0.98,-0.03772545244875272
0.09000000000000008,-0.98,-0.06522309975596653
0.10000000000000009,-0.98,-0.09246334128604333
0.1100000000000001,-0.98,-0.11933867225054665
0.1200000000000001,-0.98,-0.1457430279963303
0.13000000000000012,-0.98,-0.17157220259426834
0.14000000000000012,-0.98,-0.1967242600924502
0.15000000000000013,-0.98,-0.22109993681081258
0.15999999999999992,-0.98,-0.2446030330895355
0.16999999999999993,-0.98,-0.2671407929451502
0.17999999999999994,-0.98,-0.2886242701360296
0.18999999999999995,-0.98,-0.30896867919256815
0.19999999999999996,-0.98,-0.32809373002669673
0.20999999999999996,-0.98,-0.345923944800177
0.21999999999999997,-0.98,-0.3623889558011487
0.22999999999999998,-0.98,-0.3774237831533389
0.24,-0.98,-0.3909690912619477
0.25,-0.98,-0.402971422984133
0.26,-0.98,-0.4133834105999312
0.27,-0.98,-0.42216396275100754
0.28,-0.98,-0.42927842660947435
0.29000000000000004,-0.98,-0.4346987246367714
0.30000000000000004,-0.98,-0.43840346539288383
0.31000000000000005,-0.98,-0.44037802795858244
0.32000000000000006,-0.98,-0.4406146196375117
0.33000000000000007,-0.98,-0.4391123067104039
0.3400000000000001,-0.98,-0.43587701812004076
0.3500000000000001,-0.98,-0.4309215220724253
0.3600000000000001,-0.98,-0.4242653756465067
0.3700000000000001,-0.98,-0.4159348476113247
0.3800000000000001,-0.98,-0.40596281475517726
0.3900000000000001,-0.98,-0.39438863213595915
0.40000000000000013,-0.98,-0.3812579777647277
0.4099999999999999,-0.98,-0.36662267233546064
0.41999999999999993,-0.98,-0.3505404747124523
0.42999999999999994,-0.98,-0.33307485398246317
0.43999999999999995,-0.98,-0.31429473897123184
0.44999999999999996,-0.98,-0.294274246212889
0.45999999999999996,-0.98,-0.2730923874458586
0.47,-0.98,-0.2508327577896239
0.48,-0.98,-0.2275832058329797
0.49,-0.98,-0.20343548693578967
0.5,-0.98,-0.17848490111249726
0.51,-0.98,-0.1528299169265088
0.52,-0.98,-0.12657178287975904
0.53,-0.98,-0.09981412783112983
0.54,-0.98,-0.07266255202068869
0.55,-0.98,-0.04522421031378422
0.56,-0.98,-0.017607389309747652
0.5700000000000001,-0.98,0.01007892001584355
0.5800000000000001,-0.98,0.037725452448752764
0.5900000000000001,-0.98,0.06522309975596646
0.6000000000000001,-0.98,0.09246334128604333
0.6100000000000001,-0.98,0.11933867225054659
0.6200000000000001,-0.98,0.14574302799633027
0.6300000000000001,-0.98,0.17157220259426836
0.6400000000000001,-0.98,0.1967242600924503
0.6500000000000001,-0.98,0.22109993681081272
0.6600000000000001,-0.98,0.24460303308953563
0.6699999999999999,-0.98,0.2671407929451503
0.6799999999999999,-0.98,0.28862427013602965
0.69,-0.98,0.3089686791925682
0.7,-0.98,0.32809373002669673
0.71,-0.98,0.3459239448001772
0.72,-0.98,0.3623889558011488
0.73,-0.98,0.37742378315333874
0.74,-0.98,0.39096909126194757
0.75,-0.98,0.4029714229841332
0.76,-0.98,0.4133834105999313
0.77,-0.98,0.4221639627510073
0.78,-0.98,0.4292784266094741
0.79,-0.98,0.43469872463677134
0.8,-0.98,0.43840346539288383
0.81,-0.98,0.4403780279585824
0.8200000000000001,-0.98,0.44061461963751186
0.8300000000000001,-0.98,0.439112306710404
0.8400000000000001,-0.98,0.4358770181200406
0.8500000000000001,-0.98,0.4309215220724251
0.8600000000000001,-0.98,0.4242653756465067
0.8700000000000001,-0.98,0.4159348476113245
0.8800000000000001,-0.98,0.4059628147551773
0.8900000000000001,-0.98,0.39438863213595904
0.9000000000000001,-0.98,0.3812579777647277
0.9100000000000001,-0.98,0.36662267233546064
0.9199999999999999,-0.98,0.3505404747124521
0.9299999999999999,-0.98,0.33307485398246317
0.94,-0.98,0.3142947389712317
0.95,-0.98,0.294274246212889
0.96,-0.98,0.2730923874458586
0.97,-0.98,0.2508327577896239
0.98,-0.98,0.22758320583297975
0.99,-0.98,0.20343548693578967
1.0,-0.98,0.17848490111249732

-1.0,-0.97,0.14662092622727108
-0.99,-0.97,0.12346114940553535
-0.98,-0.97,0.09981412783112996
-0.97,-0.97,0.07577318549491252
-0.96,-0.97,0.051433201013022234
-0.95,-0.97,0.026890233184327927
-0.94,-0.97,0.0022411418902340517
-0.9299999999999999,-0.97,-0.02241679416702024
-0.92,-0.97,-0.04698626137895638
-0.91,-0.97,-0.07137029528321076
-0.9,-0.97,-0.09547266323796866
-0.89,-0.97,-0.11919824420823723
-0.88,-0.97,-0.14245340416511362
-0.87,-0.97,-0.1651463656165202
-0.86,-0.97,-0.1871875698110359
-0.85,-0.97,-0.20849003018537354
-0.84,-0.97,-0.22896967566060417
-0.83,-0.97,-0.24854568243229658
-0.8200000000000001,-0.97,-0.2671407929451502
-0.81,-0.97,-0.2846816207932684
-0.8,-0.97,-0.30109894034277684
-0.79,-0.97,-0.3163279599337734
-0.78,-0.97,-0.3303085775834094
-0.77,-0.97,-0.34298561818095896
-0.76,-0.97,-0.354309051238772
-0.75,-0.97,-0.36423418833975374
-0.74,-0.97,-0.3727218595021309
-0.73,-0.97,-0.3797385677654731
-0.72,-0.97,-0.3852566213878944
-0.71,-0.97,-0.38925424313270646
-0.7,-0.97,-0.39171565621322124
-0.69,-0.97,-0.3926311465565231
-0.6799999999999999,-0.97,-0.3919971011404746
-0.6699999999999999,-0.97,-0.3898160222526651
-0.6599999999999999,-0.97,-0.38609651761502484
-0.6499999999999999,-0.97,-0.3808532664130786
-0.64,-0.97,-0.3741069613639066
-0.63,-0.97,-0.3658842270514442
-0.62,-0.97,-0.35621751485141306
-0.61,-0.97,-0.3451449748605659
-0.6,-0.97,-0.332710305335684
-0.59,-0.97,-0.31896258023652213
-0.5800000000000001,-0.97,-0.3039560555533085
-0.5700000000000001,-0.97,-0.28774995518313873
-0.56,-0.97,-0.2704082372003111
-0.55,-0.97,-0.25199934144302605
-0.54,-0.97,-0.23259591941261376
-0.53,-0.97,-0.21227454755124736
-0.52,-0.97,-0.1911154250297122
-0.51,-0.97,-0.16920205723791715
-0.5,-0.97,-0.14662092622727102
-0.49,-0.97,-0.12346114940553532
-0.48,-0.97,-0.09981412783112997
-0.47,-0.97,-0.07577318549491249
-0.45999999999999996,-0.97,-0.05143320101302213
-0.44999999999999996,-0.97,-0.026890233184327865
-0.43999999999999995,-0.97,-0.0022411418902340075
-0.42999999999999994,-0.97,0.02241679416702029
-0.42000000000000004,-0.97,0.04698626137895644
-0.41000000000000003,-0.97,0.07137029528321079
-0.4,-0.97,0.0954726632379687
-0.39,-0.97,0.11919824420823717
-0.38,-0.97,0.14245340416511368
-0.37,-0.97,0.1651463656165202
-0.36,-0.97,0.18718756981103596
-0.35,-0.97,0.20849003018537354
-0.33999999999999997,-0.97,0.22896967566060406
-0.32999999999999996,-0.97,0.24854568243229666
-0.31999999999999995,-0.97,0.26714079294515025
-0.30999999999999994,-0.97,0.2846816207932685
-0.29999999999999993,-0.97,0.30109894034277684
-0.29000000000000004,-0.97,0.3163279599337733
-0.28,-0.97,0.33030857758340954
-0.27,-0.97,0.34298561818095896
-0.26,-0.97,0.354309051238772
-0.25,-0.97,0.36423418833975385
-0.24,-0.97,0.37272185950213094
-0.22999999999999998,-0.97,0.37973856776547343
-0.21999999999999997,-0.97,0.3852566213878946
-0.20999999999999996,-0.97,0.3892542431327065
-0.19999999999999996,-0.97,0.39171565621322124
-0.18999999999999995,-0.97,0.3926311465565232
-0.17999999999999994,-0.97,0.3919971011404746
-0.16999999999999993,-0.97,0.3898160222526653
-0.16000000000000003,-0.97,0.38609651761502495
-0.15000000000000002,-0.97,0.3808532664130785
-0.14,-0.97,0.37410696136390653
-0.13,-0.97,0.36588422705144424
-0.12,-0.97,0.35621751485141306
-0.10999999999999999,-0.97,0.3451449748605658
-0.09999999999999998,-0.97,0.33271030533568396
-0.08999999999999997,-0.97,0.31896258023652213
-0.07999999999999996,-0.97,0.3039560555533086
-0.06999999999999995,-0.97,0.28774995518313884
-0.05999999999999994,-0.97,0.270408237200311
-0.04999999999999993,-0.97,0.2519993414430263
-0.040000000000000036,-0.97,0.23259591941261368
-0.030000000000000027,-0.97,0.21227454755124744
-0.020000000000000018,-0.97,0.19111542502971213
-0.010000000000000009,-0.97,0.16920205723791712
0.0,-0.97,0.14662092622727105
0.010000000000000009,-0.97,0.12346114940553535
0.020000000000000018,-0.97,0.09981412783112995
0.030000000000000027,-0.97,0.07577318549491244
0.040000000000000036,-0.97,0.05143320101302212
0.050000000000000044,-0.97,0.026890233184327813
0.06000000000000005,-0.97,0.0022411418902339433
0.07000000000000006,-0.97,-0.02241679416702032
0.08000000000000007,-0.97,-0.04698626137895649
0.09000000000000008,-0.97,-0.07137029528321083
0.10000000000000009,-0.97,-0.09547266323796871
0.1100000000000001,-0.97,-0.11919824420823728
0.1200000000000001,-0.97,-0.14245340416511362
0.13000000000000012,-0.97,-0.1651463656165201
0.14000000000000012,-0.97,-0.18718756981103588
0.15000000000000013,-0.97,-0.20849003018537357
0.15999999999999992,-0.97,-0.22896967566060406
0.16999999999999993,-0.97,-0.24854568243229663
0.17999999999999994,-0.97,-0.26714079294515014
0.18999999999999995,-0.97,-0.2846816207932685
0.19999999999999996,-0.97,-0.30109894034277684
0.20999999999999996,-0.97,-0.31632795993377344
0.21999999999999997,-0.97,-0.3303085775834096
0.22999999999999998,-0.97,-0.34298561818095885
0.24,-0.97,-0.3543090512387718
0.25,-0.97,-0.36423418833975363
0.26,-0.97,-0.37272185950213077
0.27,-0.97,-0.3797385677654733
0.28,-0.97,-0.3852566213878946
0.29000000000000004,-0.97,-0.3892542431327063
0.30000000000000004,-0.97,-0.39171565621322124
0.31000000000000005,-0.97,-0.392631146556523
0.32000000000000006,-0.97,-0.39199710114047454
0.33000000000000007,-0.97,-0.3898160222526653
0.3400000000000001,-0.97,-0.3860965176150251
0.3500000000000001,-0.97,-0.3808532664130785
0.3600000000000001,-0.97,-0.37410696136390664
0.3700000000000001,-0.97,-0.3658842270514444
0.3800000000000001,-0.97,-0.35621751485141306
0.3900000000000001,-0.97,-0.34514497486056583
0.40000000000000013,-0.97,-0.332710305335684
0.4099999999999999,-0.97,-0.31896258023652224
0.41999999999999993,-0.97,-0.3039560555533085
0.42999999999999994,-0.97,-0.2877499551831388
0.43999999999999995,-0.97,-0.27040823720031115
0.44999999999999996,-0.97,-0.25199934144302627
0.45999999999999996,-0.97,-0.23259591941261387
0.47,-0.97,-0.21227454755124736
0.48,-0.97,-0.19111542502971218
0.49,-0.97,-0.1692020572379171
0.5,-0.97,-0.14662092622727094
0.51,-0.97,-0.12346114940553535
0.52,-0.97,-0.09981412783112982
0.53,-0.97,-0.0757731854949124
0.54,-0.97,-0.05143320101302208
0.55,-0.97,-0.026890233184327823
0.56,-0.97,-0.0022411418902339355
0.5700000000000001,-0.97,0.02241679416702036
0.5800000000000001,-0.97,0.046986261378956465
0.5900000000000001,-0.97,0.07137029528321082
0.6000000000000001,-0.97,0.09547266323796869
0.6100000000000001,-0.97,0.11919824420823724
0.6200000000000001,-0.97,0.14245340416511365