TITLE = "Solution" 
VARIABLES = "x", "y", "sol" 
ZONE STRANDID=1, SOLUTIONTIME= 1.49999999999999, I= 201, J =201, DATAPACKING=POINT 
-1.0,-1.0,-0.22354673385560064
-0.99,-1.0,-0.22310561544073074
-0.98,-1.0,-0.22178400108897633
-0.97,-1.0,-0.2195871066083958
-0.96,-1.0,-0.21652360213783847
-0.95,-1.0,-0.2126055779298673
-0.94,-1.0,-0.2078484966360567
-0.9299999999999999,-1.0,-0.2022711322829688
-0.92,-1.0,-0.19589549617965052
-0.91,-1.0,-0.18874675004905034
-0.9,-1.0,-0.1808531067261943
-0.89,-1.0,-0.17224571881501508
-0.88,-1.0,-0.16295855574325674
-0.87,-1.0,-0.15302826970066213
-0.86,-1.0,-0.14249405098952544
-0.85,-1.0,-0.1313974733584725
-0.84,-1.0,-0.11978232992986915
-0.83,-1.0,-0.10769446036837374
-0.8200000000000001,-1.0,-0.09518156997272352
-0.81,-1.0,-0.08229304140471363
-0.8,-1.0,-0.06907973979839388
-0.79,-1.0,-0.0555938120186211
-0.78,-1.0,-0.041888480861207535
-0.77,-1.0,-0.028017835006861117
-0.76,-1.0,-0.014036615557874168
-0.75,-1.0,1.6653345369377348e-16
-0.74,-1.0,0.01403661555787443
-0.73,-1.0,0.028017835006861502
-0.72,-1.0,0.04188848086120771
-0.71,-1.0,0.0555938120186212
-0.7,-1.0,0.06907973979839419
-0.69,-1.0,0.08229304140471383
-0.6799999999999999,-1.0,0.09518156997272353
-0.6699999999999999,-1.0,0.1076944603683739
-0.6599999999999999,-1.0,0.11978232992986938
-0.6499999999999999,-1.0,0.13139747335847266
-0.64,-1.0,0.14249405098952556
-0.63,-1.0,0.15302826970066224
-0.62,-1.0,0.1629585557432569
-0.61,-1.0,0.1722457188150152
-0.6,-1.0,0.18085310672619448
-0.59,-1.0,0.1887467500490504
-0.5800000000000001,-1.0,0.19589549617965066
-0.5700000000000001,-1.0,0.20227113228296895
-0.56,-1.0,0.2078484966360567
-0.55,-1.0,0.21260557792986753
-0.54,-1.0,0.2165236021378384
-0.53,-1.0,0.21958710660839598
-0.52,-1.0,0.22178400108897633
-0.51,-1.0,0.22310561544073074
-0.5,-1.0,0.2235467338556007
-0.49,-1.0,0.22310561544073065
-0.48,-1.0,0.2217840010889764
-0.47,-1.0,0.21958710660839587
-0.45999999999999996,-1.0,0.21652360213783844
-0.44999999999999996,-1.0,0.2126055779298673
-0.43999999999999995,-1.0,0.2078484966360566
-0.42999999999999994,-1.0,0.2022711322829689
-0.42000000000000004,-1.0,0.19589549617965052
-0.41000000000000003,-1.0,0.18874675004905037
-0.4,-1.0,0.18085310672619428
-0.39,-1.0,0.17224571881501505
-0.38,-1.0,0.16295855574325663
-0.37,-1.0,0.15302826970066202
-0.36,-1.0,0.14249405098952533
-0.35,-1.0,0.13139747335847246
-0.33999999999999997,-1.0,0.11978232992986912
-0.32999999999999996,-1.0,0.1076944603683738
-0.31999999999999995,-1.0,0.09518156997272326
-0.30999999999999994,-1.0,0.08229304140471361
-0.29999999999999993,-1.0,0.06907973979839384
-0.29000000000000004,-1.0,0.055593812018621014
-0.28,-1.0,0.04188848086120733
-0.27,-1.0,0.02801783500686118
-0.26,-1.0,0.014036615557874152
-0.25,-1.0,-1.9081958235744878e-16
-0.24,-1.0,-0.014036615557874478
-0.22999999999999998,-1.0,-0.028017835006861502
-0.21999999999999997,-1.0,-0.041888480861207694
-0.20999999999999996,-1.0,-0.05559381201862118
-0.19999999999999996,-1.0,-0.06907973979839412
-0.18999999999999995,-1.0,-0.0822930414047138
-0.17999999999999994,-1.0,-0.0951815699727235
-0.16999999999999993,-1.0,-0.10769446036837396
-0.16000000000000003,-1.0,-0.11978232992986931
-0.15000000000000002,-1.0,-0.13139747335847263
-0.14,-1.0,-0.14249405098952544
-0.13,-1.0,-0.1530282697006623
-0.12,-1.0,-0.16295855574325682
-0.10999999999999999,-1.0,-0.17224571881501524
-0.09999999999999998,-1.0,-0.1808531067261944
-0.08999999999999997,-1.0,-0.18874675004905045
-0.07999999999999996,-1.0,-0.19589549617965052
-0.06999999999999995,-1.0,-0.2022711322829689
-0.05999999999999994,-1.0,-0.2078484966360566
-0.04999999999999993,-1.0,-0.2126055779298675
-0.040000000000000036,-1.0,-0.2165236021378384
-0.030000000000000027,-1.0,-0.21958710660839587
-0.020000000000000018,-1.0,-0.22178400108897647
-0.010000000000000009,-1.0,-0.2231056154407307
0.0,-1.0,-0.22354673385560064
0.010000000000000009,-1.0,-0.2231056154407308
0.020000000000000018,-1.0,-0.22178400108897645
0.030000000000000027,-1.0,-0.2195871066083959
0.040000000000000036,-1.0,-0.21652360213783844
0.050000000000000044,-1.0,-0.21260557792986748
0.06000000000000005,-1.0,-0.20784849663605656
0.07000000000000006,-1.0,-0.20227113228296878
0.08000000000000007,-1.0,-0.19589549617965052
0.09000000000000008,-1.0,-0.18874675004905028
0.10000000000000009,-1.0,-0.18085310672619426
0.1100000000000001,-1.0,-0.17224571881501527
0.1200000000000001,-1.0,-0.16295855574325668
0.13000000000000012,-1.0,-0.15302826970066208
0.14000000000000012,-1.0,-0.1424940509895254
0.15000000000000013,-1.0,-0.13139747335847246
0.15999999999999992,-1.0,-0.11978232992986917
0.16999999999999993,-1.0,-0.10769446036837384
0.17999999999999994,-1.0,-0.09518156997272331
0.18999999999999995,-1.0,-0.08229304140471361
0.19999999999999996,-1.0,-0.06907973979839392
0.20999999999999996,-1.0,-0.05559381201862104
0.21999999999999997,-1.0,-0.04188848086120745
0.22999999999999998,-1.0,-0.02801783500686123
0.24,-1.0,-0.01403661555787412
0.25,-1.0,1.1102230246251565e-16
0.26,-1.0,0.01403661555787445
0.27,-1.0,0.028017835006861426
0.28,-1.0,0.04188848086120765
0.29000000000000004,-1.0,0.0555938120186213
0.30000000000000004,-1.0,0.06907973979839405
0.31000000000000005,-1.0,0.08229304140471386
0.32000000000000006,-1.0,0.09518156997272355
0.33000000000000007,-1.0,0.10769446036837402
0.3400000000000001,-1.0,0.11978232992986931
0.3500000000000001,-1.0,0.13139747335847263
0.3600000000000001,-1.0,0.14249405098952553
0.3700000000000001,-1.0,0.15302826970066222
0.3800000000000001,-1.0,0.16295855574325674
0.3900000000000001,-1.0,0.17224571881501524
0.40000000000000013,-1.0,0.18085310672619434
0.4099999999999999,-1.0,0.18874675004905045
0.41999999999999993,-1.0,0.19589549617965052
0.42999999999999994,-1.0,0.20227113228296892
0.43999999999999995,-1.0,0.20784849663605665
0.44999999999999996,-1.0,0.2126055779298675
0.45999999999999996,-1.0,0.21652360213783856
0.47,-1.0,0.21958710660839598
0.48,-1.0,0.2217840010889764
0.49,-1.0,0.22310561544073074
0.5,-1.0,0.2235467338556006
0.51,-1.0,0.2231056154407307
0.52,-1.0,0.22178400108897628
0.53,-1.0,0.21958710660839598
0.54,-1.0,0.21652360213783844
0.55,-1.0,0.21260557792986745
0.56,-1.0,0.20784849663605653
0.5700000000000001,-1.0,0.20227113228296884
0.5800000000000001,-1.0,0.19589549617965057
0.5900000000000001,-1.0,0.18874675004905042
0.6000000000000001,-1.0,0.18085310672619442
0.6100000000000001,-1.0,0.17224571881501521
0.6200000000000001,-1.0,0.16295855574325657
0.6300000000000001,-1.0,0.15302826970066224
0.6400000000000001,-1.0,0.1424940509895254
0.6500000000000001,-1.0,0.13139747335847243
0.6600000000000001,-1.0,0.11978232992986922
0.6699999999999999,-1.0,0.1076944603683738
0.6799999999999999,-1.0,0.0951815699727234
0.69,-1.0,0.08229304140471358
0.7,-1.0,0.06907973979839388
0.71,-1.0,0.05559381201862095
0.72,-1.0,0.04188848086120736
0.73,-1.0,0.028017835006861246
0.74,-1.0,0.014036615557874265
0.75,-1.0,-1.0408340855860843e-16
0.76,-1.0,-0.014036615557874499
0.77,-1.0,-0.02801783500686143
0.78,-1.0,-0.0418884808612077
0.79,-1.0,-0.055593812018621354
0.8,-1.0,-0.06907973979839416
0.81,-1.0,-0.08229304140471391
0.8200000000000001,-1.0,-0.0951815699727235
0.8300000000000001,-1.0,-0.10769446036837396
0.8400000000000001,-1.0,-0.11978232992986931
0.8500000000000001,-1.0,-0.13139747335847263
0.8600000000000001,-1.0,-0.1424940509895255
0.8700000000000001,-1.0,-0.15302826970066227
0.8800000000000001,-1.0,-0.1629585557432569
0.8900000000000001,-1.0,-0.1722457188150152
0.9000000000000001,-1.0,-0.18085310672619434
0.9100000000000001,-1.0,-0.18874675004905045
0.9199999999999999,-1.0,-0.19589549617965057
0.9299999999999999,-1.0,-0.20227113228296886
0.94,-1.0,-0.2078484966360567
0.95,-1.0,-0.21260557792986748
0.96,-1.0,-0.21652360213783856
0.97,-1.0,-0.21958710660839587
0.98,-1.0,-0.22178400108897628
0.99,-1.0,-0.22310561544073076
1.0,-1.0,-0.22354673385560064

-1.0,-0.99,-0.22310561544073074
-0.99,-0.99,-0.21960408451283958
-0.98,-0.99,-0.21523587659093915
-0.97,-0.99,-0.210018230996053
-0.96,-0.99,-0.20397173939162816
-0.95,-0.99,-0.19712026451764872
-0.94,-0.99,-0.1894908460153003
-0.9299999999999999,-0.99,-0.1811135937138626
-0.92,-0.99,-0.17202156880096658
-0.91,-0.99,-0.16225065334519245
-0.9,-0.99,-0.15183940868593737
-0.89,-0.99,-0.14082892324942636
-0.88,-0.99,-0.12926265039146478
-0.87,-0.99,-0.11718623690689586
-0.86,-0.99,-0.10464734288255437
-0.85,-0.99,-0.0916954536046788
-0.84,-0.99,-0.07838168426309347
-0.83,-0.99,-0.06475857822290727
-0.8200000000000001,-0.99,-0.050879899659855135
-0.81,-0.99,-0.036800421377660736
-0.8,-0.99,-0.022575708644802097
-0.79,-0.99,-0.00826189990378257
-0.78,-0.99,0.006084514781654355
-0.77,-0.99,0.02040691666699823
-0.76,-0.99,0.03464878177529096
-0.75,-0.99,0.04875390397143921
-0.74,-0.99,0.0626666167821523
-0.73,-0.99,0.07633201308608009
-0.72,-0.99,0.0896961618071367
-0.71,-0.99,0.10270632075581917
-0.7,-0.99,0.11531114477853283
-0.69,-0.99,0.12746088839345668
-0.6799999999999999,-0.99,0.1391076021132324
-0.6699999999999999,-0.99,0.1502053216796856
-0.6599999999999999,-0.99,0.16071024946375295
-0.6499999999999999,-0.99,0.1705809273147159
-0.64,-0.99,0.17977840017658037
-0.63,-0.99,0.18826636982588646
-0.62,-0.99,0.1960113381242125
-0.61,-0.99,0.20298273922002488
-0.6,-0.99,0.2091530601781281
-0.59,-0.99,0.2144979495606525
-0.5800000000000001,-0.99,0.21899631353105262
-0.5700000000000001,-0.99,0.22263039910184457
-0.56,-0.99,0.22538586419753603
-0.55,-0.99,0.22725183425624634
-0.54,-0.99,0.22822094514663516
-0.53,-0.99,0.22828937223076184
-0.52,-0.99,0.2274568454581874
-0.51,-0.99,0.22572665043173745
-0.5,-0.99,0.22310561544073068
-0.49,-0.99,0.21960408451283964
-0.48,-0.99,0.21523587659093923
-0.47,-0.99,0.210018230996053
-0.45999999999999996,-0.99,0.20397173939162816
-0.44999999999999996,-0.99,0.19712026451764858
-0.43999999999999995,-0.99,0.18949084601530045
-0.42999999999999994,-0.99,0.18111359371386263
-0.42000000000000004,-0.99,0.1720215688009666
-0.41000000000000003,-0.99,0.16225065334519242
-0.4,-0.99,0.15183940868593732
-0.39,-0.99,0.14082892324942625
-0.38,-0.99,0.12926265039146473
-0.37,-0.99,0.11718623690689578
-0.36,-0.99,0.10464734288255434
-0.35,-0.99,0.09169545360467878
-0.33999999999999997,-0.99,0.07838168426309353
-0.32999999999999996,-0.99,0.06475857822290704
-0.31999999999999995,-0.99,0.0508798996598551
-0.30999999999999994,-0.99,0.036800421377660715
-0.29999999999999993,-0.99,0.022575708644802014
-0.29000000000000004,-0.99,0.008261899903782387
-0.28,-0.99,-0.006084514781654317
-0.27,-0.99,-0.02040691666699824
-0.26,-0.99,-0.03464878177529096
-0.25,-0.99,-0.048753903971439236
-0.24,-0.99,-0.0626666167821523
-0.22999999999999998,-0.99,-0.07633201308608008
-0.21999999999999997,-0.99,-0.08969616180713669
-0.20999999999999996,-0.99,-0.10270632075581908
-0.19999999999999996,-0.99,-0.1153111447785328
-0.18999999999999995,-0.99,-0.12746088839345665
-0.17999999999999994,-0.99,-0.13910760211323248
-0.16999999999999993,-0.99,-0.1502053216796856
-0.16000000000000003,-0.99,-0.16071024946375292
-0.15000000000000002,-0.99,-0.1705809273147158
-0.14,-0.99,-0.17977840017658045
-0.13,-0.99,-0.1882663698258864
-0.12,-0.99,-0.19601133812421256
-0.10999999999999999,-0.99,-0.20298273922002483
-0.09999999999999998,-0.99,-0.20915306017812815
-0.08999999999999997,-0.99,-0.21449794956065235
-0.07999999999999996,-0.99,-0.2189963135310526
-0.06999999999999995,-0.99,-0.22263039910184448
-0.05999999999999994,-0.99,-0.225385864197536
-0.04999999999999993,-0.99,-0.22725183425624634
-0.040000000000000036,-0.99,-0.228220945146635
-0.030000000000000027,-0.99,-0.228289372230762
-0.020000000000000018,-0.99,-0.22745684545818734
-0.010000000000000009,-0.99,-0.2257266504317374
0.0,-0.99,-0.22310561544073076
0.010000000000000009,-0.99,-0.2196040845128397
0.020000000000000018,-0.99,-0.21523587659093923
0.030000000000000027,-0.99,-0.21001823099605293
0.040000000000000036,-0.99,-0.20397173939162835
0.050000000000000044,-0.99,-0.19712026451764858
0.06000000000000005,-0.99,-0.1894908460153003
0.07000000000000006,-0.99,-0.1811135937138626
0.08000000000000007,-0.99,-0.17202156880096658
0.09000000000000008,-0.99,-0.1622506533451924
0.10000000000000009,-0.99,-0.15183940868593754
0.1100000000000001,-0.99,-0.14082892324942628
0.1200000000000001,-0.99,-0.12926265039146478
0.13000000000000012,-0.99,-0.11718623690689581
0.14000000000000012,-0.99,-0.10464734288255435
0.15000000000000013,-0.99,-0.09169545360467879
0.15999999999999992,-0.99,-0.07838168426309354
0.16999999999999993,-0.99,-0.06475857822290709
0.17999999999999994,-0.99,-0.05087989965985511
0.18999999999999995,-0.99,-0.03680042137766076
0.19999999999999996,-0.99,-0.02257570864480204
0.20999999999999996,-0.99,-0.008261899903782514
0.21999999999999997,-0.99,0.0060845147816542405
0.22999999999999998,-0.99,0.020406916666998256
0.24,-0.99,0.0346487817752909
0.25,-0.99,0.04875390397143921
0.26,-0.99,0.06266661678215221
0.27,-0.99,0.07633201308608004
0.28,-0.99,0.0896961618071368
0.29000000000000004,-0.99,0.102706320755819
0.30000000000000004,-0.99,0.11531114477853285
0.31000000000000005,-0.99,0.1274608883934567
0.32000000000000006,-0.99,0.13910760211323256
0.33000000000000007,-0.99,0.15020532167968553
0.3400000000000001,-0.99,0.1607102494637529
0.3500000000000001,-0.99,0.17058092731471586
0.3600000000000001,-0.99,0.17977840017658034
0.3700000000000001,-0.99,0.1882663698258863
0.3800000000000001,-0.99,0.1960113381242126
0.3900000000000001,-0.99,0.20298273922002474
0.40000000000000013,-0.99,0.20915306017812813
0.4099999999999999,-0.99,0.2144979495606524
0.41999999999999993,-0.99,0.21899631353105264
0.42999999999999994,-0.99,0.22263039910184448
0.43999999999999995,-0.99,0.22538586419753598
0.44999999999999996,-0.99,0.22725183425624657
0.45999999999999996,-0.99,0.2282209451466351
0.47,-0.99,0.2282893722307619
0.48,-0.99,0.22745684545818734
0.49,-0.99,0.22572665043173734
0.5,-0.99,0.22310561544073068
0.51,-0.99,0.21960408451283955
0.52,-0.99,0.21523587659093935
0.53,-0.99,0.21001823099605288
0.54,-0.99,0.2039717393916283
0.55,-0.99,0.19712026451764858
0.56,-0.99,0.18949084601530036
0.5700000000000001,-0.99,0.18111359371386265
0.5800000000000001,-0.99,0.1720215688009667
0.5900000000000001,-0.99,0.16225065334519256
0.6000000000000001,-0.99,0.15183940868593748
0.6100000000000001,-0.99,0.14082892324942625
0.6200000000000001,-0.99,0.1292626503914649
0.6300000000000001,-0.99,0.11718623690689581
0.6400000000000001,-0.99,0.10464734288255431
0.6500000000000001,-0.99,0.09169545360467884
0.6600000000000001,-0.99,0.07838168426309353
0.6699999999999999,-0.99,0.06475857822290718
0.6799999999999999,-0.99,0.05087989965985508
0.69,-0.99,0.036800421377660736
0.7,-0.99,0.022575708644801958
0.71,-0.99,0.008261899903782422
0.72,-0.99,-0.006084514781654234
0.73,-0.99,-0.02040691666699814
0.74,-0.99,-0.03464878177529087
0.75,-0.99,-0.04875390397143924
0.76,-0.99,-0.06266661678215221
0.77,-0.99,-0.07633201308608009
0.78,-0.99,-0.08969616180713683
0.79,-0.99,-0.10270632075581912
0.8,-0.99,-0.11531114477853291
0.81,-0.99,-0.12746088839345668
0.8200000000000001,-0.99,-0.13910760211323245
0.8300000000000001,-0.99,-0.15020532167968556
0.8400000000000001,-0.99,-0.1607102494637529
0.8500000000000001,-0.99,-0.17058092731471586
0.8600000000000001,-0.99,-0.1797784001765804
0.8700000000000001,-0.99,-0.18826636982588646
0.8800000000000001,-0.99,-0.19601133812421245
0.8900000000000001,-0.99,-0.20298273922002477
0.9000000000000001,-0.99,-0.20915306017812815
0.9100000000000001,-0.99,-0.21449794956065243
0.9199999999999999,-0.99,-0.21899631353105253
0.9299999999999999,-0.99,-0.22263039910184457
0.94,-0.99,-0.22538586419753592
0.95,-0.99,-0.2272518342562465
0.96,-0.99,-0.228220945146635
0.97,-0.99,-0.2282893722307618
0.98,-0.99,-0.22745684545818745
0.99,-0.99,-0.22572665043173745
1.0,-0.99,-0.22310561544073074

-1.0,-0.98,-0.22178400108897633
-0.99,-0.98,-0.21523587659093912
-0.98,-0.98,-0.20783831441991624
-0.97,-0.98,-0.19962050937417158
-0.96,-0.98,-0.19061489337586318
-0.95,-0.98,-0.18085700747706118
-0.94,-0.98,-0.17038536159545464
-0.9299999999999999,-0.98,-0.1592412825332981
-0.92,-0.98,-0.14746875087940453
-0.91,-0.98,-0.13511422743785362
-0.9,-0.98,-0.12222646986842448
-0.89,-0.98,-0.10885634026238707
-0.88,-0.98,-0.09505660441306543
-0.87,-0.98,-0.08088172357335699
-0.86,-0.98,-0.06638763952204921
-0.85,-0.98,-0.051631553787175336
-0.84,-0.98,-0.036671701897716895
-0.83,-0.98,-0.02156712355457486
-0.8200000000000001,-0.98,-0.006377429627844506
-0.81,-0.98,0.008837433100056406
-0.8,-0.98,0.0240174185169506
-0.79,-0.98,0.03910261815547334
-0.78,-0.98,0.05403349762442321
-0.77,-0.98,0.06875113156380647
-0.76,-0.98,0.08319743619631159
-0.75,-0.98,0.09731539855744308
-0.74,-0.98,0.1110493014996449
-0.73,-0.98,0.12434494358242747
-0.72,-0.98,0.13714985298069154
-0.71,-0.98,0.14941349456704833
-0.7,-0.98,0.16108746935088164
-0.69,-0.98,0.17212570548705136
-0.6799999999999999,-0.98,0.1824846401004187
-0.6699999999999999,-0.98,0.19212339120861147
-0.6599999999999999,-0.98,0.20100391906453213
-0.6499999999999999,-0.98,0.20909117628186064
-0.64,-0.98,0.21635324615107676
-0.63,-0.98,0.2227614686001306
-0.62,-0.98,0.22829055330265446
-0.61,-0.98,0.23291867948732545
-0.6,-0.98,0.2366275820544829
-0.59,-0.98,0.23940262366013035
-0.5800000000000001,-0.98,0.2412328524828464
-0.5700000000000001,-0.98,0.24211104544561968
-0.56,-0.98,0.24203373672203432
-0.55,-0.98,0.2410012314143036
-0.54,-0.98,0.23901760434916985
-0.53,-0.98,0.23609068399642655
-0.52,-0.98,0.23223202157352296
-0.51,-0.98,0.2274568454581873
-0.5,-0.98,0.22178400108897636
-0.49,-0.98,0.2152358765909392
-0.48,-0.98,0.20783831441991618
-0.47,-0.98,0.19962050937417158
-0.45999999999999996,-0.98,0.19061489337586301
-0.44999999999999996,-0.98,0.1808570074770613
-0.43999999999999995,-0.98,0.17038536159545467
-0.42999999999999994,-0.98,0.1592412825332981
-0.42000000000000004,-0.98,0.14746875087940453
-0.41000000000000003,-0.98,0.13511422743785362
-0.4,-0.98,0.12222646986842436
-0.39,-0.98,0.10885634026238702
-0.38,-0.98,0.09505660441306536
-0.37,-0.98,0.08088172357335696
-0.36,-0.98,0.0663876395220492
-0.35,-0.98,0.051631553787175426
-0.33999999999999997,-0.98,0.0366717018977167
-0.32999999999999996,-0.98,0.021567123554574807
-0.31999999999999995,-0.98,0.006377429627844492
-0.30999999999999994,-0.98,-0.008837433100056469
-0.29999999999999993,-0.98,-0.024017418516950752
-0.29000000000000004,-0.98,-0.03910261815547332
-0.28,-0.98,-0.05403349762442321
-0.27,-0.98,-0.06875113156380648
-0.26,-0.98,-0.08319743619631162
-0.25,-0.98,-0.09731539855744309
-0.24,-0.98,-0.11104930149964484
-0.22999999999999998,-0.98,-0.12434494358242748
-0.21999999999999997,-0.98,-0.13714985298069143
-0.20999999999999996,-0.98,-0.14941349456704828
-0.19999999999999996,-0.98,-0.16108746935088158
-0.18999999999999995,-0.98,-0.1721257054870515
-0.17999999999999994,-0.98,-0.18248464010041876
-0.16999999999999993,-0.98,-0.1921233912086114
-0.16000000000000003,-0.98,-0.20100391906453202
-0.15000000000000002,-0.98,-0.2090911762818607
-0.14,-0.98,-0.21635324615107676
-0.13,-0.98,-0.22276146860013063
-0.12,-0.98,-0.22829055330265444
-0.10999999999999999,-0.98,-0.2329186794873255
-0.09999999999999998,-0.98,-0.23662758205448278
-0.08999999999999997,-0.98,-0.23940262366013032
-0.07999999999999996,-0.98,-0.24123285248284634
-0.06999999999999995,-0.98,-0.24211104544561976
-0.05999999999999994,-0.98,-0.24203373672203427
-0.04999999999999993,-0.98,-0.24100123141430346
-0.040000000000000036,-0.98,-0.23901760434917
-0.030000000000000027,-0.98,-0.2360906839964265
-0.020000000000000018,-0.98,-0.2322320215735229
-0.010000000000000009,-0.98,-0.2274568454581874
0.0,-0.98,-0.2217840010889764
0.010000000000000009,-0.98,-0.21523587659093923
0.020000000000000018,-0.98,-0.20783831441991618
0.030000000000000027,-0.98,-0.1996205093741717
0.040000000000000036,-0.98,-0.19061489337586307
0.050000000000000044,-0.98,-0.1808570074770612
0.06000000000000005,-0.98,-0.17038536159545462
0.07000000000000006,-0.98,-0.15924128253329808
0.08000000000000007,-0.98,-0.14746875087940456
0.09000000000000008,-0.98,-0.13511422743785378
0.10000000000000009,-0.98,-0.12222646986842445
0.1100000000000001,-0.98,-0.10885634026238708
0.1200000000000001,-0.98,-0.09505660441306543
0.13000000000000012,-0.98,-0.080881723573357
0.14000000000000012,-0.98,-0.06638763952204922
0.15000000000000013,-0.98,-0.05163155378717542
0.15999999999999992,-0.98,-0.03667170189771676
0.16999999999999993,-0.98,-0.02156712355457483
0.17999999999999994,-0.98,-0.006377429627844523
0.18999999999999995,-0.98,0.008837433100056458
0.19999999999999996,-0.98,0.02401741851695062
0.20999999999999996,-0.98,0.039102618155473244
0.21999999999999997,-0.98,0.05403349762442321
0.22999999999999998,-0.98,0.06875113156380638
0.24,-0.98,0.08319743619631159
0.25,-0.98,0.09731539855744299
0.26,-0.98,0.11104930149964479
0.27,-0.98,0.12434494358242759
0.28,-0.98,0.13714985298069135
0.29000000000000004,-0.98,0.14941349456704833
0.30000000000000004,-0.98,0.16108746935088167
0.31000000000000005,-0.98,0.17212570548705158
0.32000000000000006,-0.98,0.1824846401004187
0.33000000000000007,-0.98,0.19212339120861138
0.3400000000000001,-0.98,0.2010039190645321
0.3500000000000001,-0.98,0.2090911762818606
0.3600000000000001,-0.98,0.21635324615107665
0.3700000000000001,-0.98,0.22276146860013074
0.3800000000000001,-0.98,0.2282905533026543
0.3900000000000001,-0.98,0.23291867948732548
0.40000000000000013,-0.98,0.23662758205448275
0.4099999999999999,-0.98,0.2394026236601304
0.41999999999999993,-0.98,0.24123285248284632
0.42999999999999994,-0.98,0.24211104544561965
0.43999999999999995,-0.98,0.24203373672203446
0.44999999999999996,-0.98,0.24100123141430355
0.45999999999999996,-0.98,0.23901760434916985
0.47,-0.98,0.2360906839964265
0.48,-0.98,0.2322320215735229
0.49,-0.98,0.2274568454581873
0.5,-0.98,0.22178400108897628
0.51,-0.98,0.21523587659093935
0.52,-0.98,0.20783831441991618
0.53,-0.98,0.1996205093741717
0.54,-0.98,0.19061489337586304
0.55,-0.98,0.18085700747706124
0.56,-0.98,0.1703853615954547
0.5700000000000001,-0.98,0.15924128253329822
0.5800000000000001,-0.98,0.14746875087940464
0.5900000000000001,-0.98,0.13511422743785373
0.6000000000000001,-0.98,0.1222264698684244
0.6100000000000001,-0.98,0.10885634026238714
0.6200000000000001,-0.98,0.09505660441306539
0.6300000000000001,-0.98,0.08088172357335696
0.6400000000000001,-0.98,0.06638763952204926
0.6500000000000001,-0.98,0.05163155378717542
0.6600000000000001,-0.98,0.036671701897716825
0.6699999999999999,-0.98,0.021567123554574803
0.6799999999999999,-0.98,0.0063774296278445025
0.69,-0.98,-0.008837433100056535
0.7,-0.98,-0.024017418516950714
0.71,-0.98,-0.03910261815547322
0.72,-0.98,-0.054033497624423096
0.73,-0.98,-0.06875113156380633
0.74,-0.98,-0.08319743619631162
0.75,-0.98,-0.097315398557443
0.76,-0.98,-0.11104930149964484
0.77,-0.98,-0.1243449435824276
0.78,-0.98,-0.13714985298069152
0.79,-0.98,-0.14941349456704842
0.8,-0.98,-0.16108746935088164
0.81,-0.98,-0.17212570548705147
0.8200000000000001,-0.98,-0.1824846401004187
0.8300000000000001,-0.98,-0.19212339120861144
0.8400000000000001,-0.98,-0.20100391906453202
0.8500000000000001,-0.98,-0.20909117628186072
0.8600000000000001,-0.98,-0.2163532461510768
0.8700000000000001,-0.98,-0.22276146860013055
0.8800000000000001,-0.98,-0.22829055330265438
0.8900000000000001,-0.98,-0.23291867948732553
0.9000000000000001,-0.98,-0.23662758205448284
0.9100000000000001,-0.98,-0.23940262366013024
0.9199999999999999,-0.98,-0.24123285248284643
0.9299999999999999,-0.98,-0.24211104544561962
0.94,-0.98,-0.24203373672203438
0.95,-0.98,-0.24100123141430346
0.96,-0.98,-0.23901760434916977
0.97,-0.98,-0.23609068399642658
0.98,-0.98,-0.23223202157352293
0.99,-0.98,-0.22745684545818734
1.0,-0.98,-0.22178400108897633

-1.0,-0.97,-0.21958710660839573
-0.99,-0.97,-0.210018230996053
-0.98,-0.97,-0.1996205093741716
-0.97,-0.97,-0.18843497679972643
-0.96,-0.97,-0.1765057774596046
-0.95,-0.97,-0.1638799904536692
-0.94,-0.97,-0.15060744399505896
-0.9299999999999999,-0.97,-0.13674051876099658
-0.92,-0.97,-0.12233394117018515
-0.91,-0.97,-0.10744456740263658
-0.9,-0.97,-0.09213115901430333
-0.89,-0.97,-0.07645415103206354
-0.88,-0.97,-0.06047541344427927
-0.87,-0.97,-0.0442580070282188
-0.86,-0.97,-0.02786593447797799
-0.85,-0.97,-0.01136388781508729
-0.84,-0.97,0.0051830069213432625
-0.83,-0.97,0.02170944669734584
-0.8200000000000001,-0.97,0.0381502092053367
-0.81,-0.97,0.054440410266766825
-0.8,-0.97,0.07051575990033182
-0.79,-0.97,0.08631281604515637
-0.78,-0.97,0.10176923493762549
-0.77,-0.97,0.11682401715373654
-0.76,-0.97,0.13141774834595857
-0.75,-0.97,0.14549283372451727
-0.74,-0.97,0.15899372535771822
-0.73,-0.97,0.17186714139425635
-0.72,-0.97,0.1840622763423391
-0.71,-0.97,0.19553100157575404
-0.7,-0.97,0.20622805527556684
-0.69,-0.97,0.2161112210578437
-0.6799999999999999,-0.97,0.22514149458243043
-0.6699999999999999,-0.97,0.23328323748526528
-0.6599999999999999,-0.97,0.24050431802671912
-0.6499999999999999,-0.97,0.246776237900893
-0.64,-0.97,0.25207424470541084
-0.63,-0.97,0.2563774296278449
-0.62,-0.97,0.25966880996324354
-0.61,-0.97,0.2619353961371125
-0.6,-0.97,0.2631682429693277
-0.59,-0.97,0.2633624849766768
-0.5800000000000001,-0.97,0.26251735557469735
-0.5700000000000001,-0.97,0.2606361901030362
-0.56,-0.97,0.2577264126623874
-0.55,-0.97,0.2537995068149578
-0.54,-0.97,0.248870970264095
-0.53,-0.97,0.24296025369193097
-0.52,-0.97,0.23609068399642644
-0.51,-0.97,0.22828937223076184
-0.5,-0.97,0.21958710660839584
-0.49,-0.97,0.21001823099605293
-0.48,-0.97,0.19962050937417156
-0.47,-0.97,0.18843497679972626
-0.45999999999999996,-0.97,0.1765057774596046
-0.44999999999999996,-0.97,0.16387999045366913
-0.43999999999999995,-0.97,0.15060744399505896
-0.42999999999999994,-0.97,0.13674051876099652
-0.42000000000000004,-0.97,0.12233394117018513
-0.41000000000000003,-0.97,0.10744456740263647
-0.4,-0.97,0.09213115901430327
-0.39,-0.97,0.07645415103206347
-0.38,-0.97,0.060475413444279244
-0.37,-0.97,0.04425800702821879
-0.36,-0.97,0.02786593447797808
-0.35,-0.97,0.011363887815087131
-0.33999999999999997,-0.97,-0.005183006921343318
-0.32999999999999996,-0.97,-0.021709446697345855
-0.31999999999999995,-0.97,-0.03815020920533675
-0.30999999999999994,-0.97,-0.054440410266766964
-0.29999999999999993,-0.97,-0.07051575990033182
-0.29000000000000004,-0.97,-0.08631281604515638
-0.28,-0.97,-0.10176923493762549
-0.27,-0.97,-0.11682401715373658
-0.26,-0.97,-0.1314177483459586
-0.25,-0.97,-0.1454928337245172
-0.24,-0.97,-0.15899372535771827
-0.22999999999999998,-0.97,-0.17186714139425618
-0.21999999999999997,-0.97,-0.18406227634233907
-0.20999999999999996,-0.97,-0.19553100157575398
-0.19999999999999996,-0.97,-0.20622805527556695
-0.18999999999999995,-0.97,-0.21611122105784375
-0.17999999999999994,-0.97,-0.22514149458243043
-0.16999999999999993,-0.97,-0.23328323748526514
-0.16000000000000003,-0.97,-0.24050431802671918
-0.15000000000000002,-0.97,-0.246776237900893
-0.14,-0.97,-0.2520742447054109
-0.13,-0.97,-0.2563774296278448
-0.12,-0.97,-0.2596688099632436
-0.10999999999999999,-0.97,-0.26193539613711236
-0.09999999999999998,-0.97,-0.2631682429693276
-0.08999999999999997,-0.97,-0.2633624849766767
-0.07999999999999996,-0.97,-0.2625173555746975
-0.06999999999999995,-0.97,-0.26063619010303607
-0.05999999999999994,-0.97,-0.2577264126623872
-0.04999999999999993,-0.97,-0.2537995068149579
-0.040000000000000036,-0.97,-0.2488709702640949
-0.030000000000000027,-0.97,-0.24296025369193086
-0.020000000000000018,-0.97,-0.23609068399642652
-0.010000000000000009,-0.97,-0.22828937223076187
0.0,-0.97,-0.21958710660839587
0.010000000000000009,-0.97,-0.21001823099605288
0.020000000000000018,-0.97,-0.1996205093741717
0.030000000000000027,-0.97,-0.18843497679972632
0.040000000000000036,-0.97,-0.1765057774596046
0.050000000000000044,-0.97,-0.16387999045366913
0.06000000000000005,-0.97,-0.150607443995059
0.07000000000000006,-0.97,-0.1367405187609966
0.08000000000000007,-0.97,-0.12233394117018527
0.09000000000000008,-0.97,-0.10744456740263655
0.10000000000000009,-0.97,-0.09213115901430337
0.1100000000000001,-0.97,-0.07645415103206357
0.1200000000000001,-0.97,-0.06047541344427929
0.13000000000000012,-0.97,-0.04425800702821882
0.14000000000000012,-0.97,-0.027865934477978055
0.15000000000000013,-0.97,-0.011363887815087195
0.15999999999999992,-0.97,0.00518300692134328
0.16999999999999993,-0.97,0.021709446697345827
0.17999999999999994,-0.97,0.03815020920533674
0.18999999999999995,-0.97,0.05444041026676684
0.19999999999999996,-0.97,0.07051575990033174
0.20999999999999996,-0.97,0.08631281604515637
0.21999999999999997,-0.97,0.10176923493762541
0.22999999999999998,-0.97,0.11682401715373653
0.24,-0.97,0.13141774834595848
0.25,-0.97,0.1454928337245172
0.26,-0.97,0.15899372535771839
0.27,-0.97,0.1718671413942561
0.28,-0.97,0.18406227634233907
0.29000000000000004,-0.97,0.19553100157575407
0.30000000000000004,-0.97,0.20622805527556703
0.31000000000000005,-0.97,0.21611122105784364
0.32000000000000006,-0.97,0.22514149458243038
0.33000000000000007,-0.97,0.23328323748526536
0.3400000000000001,-0.97,0.24050431802671912
0.3500000000000001,-0.97,0.24677623790089287
0.3600000000000001,-0.97,0.252074244705411
0.3700000000000001,-0.97,0.25637742962784466
0.3800000000000001,-0.97,0.2596688099632436
0.3900000000000001,-0.97,0.26193539613711236
0.40000000000000013,-0.97,0.26316824296932767
0.4099999999999999,-0.97,0.26336248497667675
0.41999999999999993,-0.97,0.26251735557469735
0.42999999999999994,-0.97,0.2606361901030363
0.43999999999999995,-0.97,0.25772641266238727
0.44999999999999996,-0.97,0.2537995068149578
0.45999999999999996,-0.97,0.24887097026409494
0.47,-0.97,0.24296025369193092
0.48,-0.97,0.23609068399642646
0.49,-0.97,0.2282893722307618
0.5,-0.97,0.21958710660839598
0.51,-0.97,0.2100182309960529
0.52,-0.97,0.19962050937417164
0.53,-0.97,0.18843497679972632
0.54,-0.97,0.17650577745960463
0.55,-0.97,0.1638799904536692
0.56,-0.97,0.15060744399505904
0.5700000000000001,-0.97,0.13674051876099663